135
Lattice="11.69115672 0.00627105 0.00635745 0.00631539 11.6910186 0.00636861 0.00627543 0.00623598 11.69130861" Properties=species:S:1:pos:R:3:forces:R:3 energy=-3149777.14624994 free_energy=-3149777.14624994 pbc="T T T"
Sr       6.42113158       6.41106461       6.41126210      -0.05229250       0.00025213       0.00025266
O        8.40192574       8.40171368       6.45052639      -0.00608262      -0.01041882      -0.00661058
O        6.45030454       8.40173464       8.40217983       0.00574706      -0.00566248      -0.00567263
O        8.40193821       6.45012108       8.40217022      -0.00610504      -0.00654376      -0.01045089
Ti       8.34813160       8.34804756       8.34827623       0.01650348       0.03013528       0.03023661
Sr       6.41322339       6.41313791      10.30835953      -0.00331972       0.00052337       0.00070245
O        8.40401755       8.40379234      10.34762926      -0.00492992      -0.00635780      -0.00801752
O        6.44612092       8.39757732       0.60797409      -0.00309180      -0.00534069      -0.00535311
O        8.39775459       6.44596376       0.60796448      -0.00497327      -0.00504308      -0.00529319
Ti       8.34394798       8.34389024       0.55407049       0.01447836       0.01554037       0.01541610
Sr       6.40903977       6.40898059       2.51415379      -0.00331760       0.00052280       0.00039258
O        8.39983393       8.39963502       2.55342352      -0.00496414      -0.00651878      -0.00224426
O        6.44821273       8.39965598       4.50507696       0.00551859      -0.00565231      -0.00506498
O        8.39984640       6.44804242       4.50506735      -0.00484402      -0.00671319      -0.00115323
Ti       8.34603979       8.34596890       4.45117336       0.01644831       0.03046525       0.00199044
Sr       6.41323671      10.30806545       6.41337953      -0.00332098       0.00069988       0.00052660
O        8.39771548       0.60770128       6.44628065      -0.00495433      -0.00526439      -0.00510294
O        6.44609428       0.60772224       8.39793409      -0.00309104      -0.00534295      -0.00535080
O        8.40404334      10.34712728       8.40429309      -0.00494893      -0.00795866      -0.00638746
Ti       8.34392134       0.55403516       8.34403049       0.01447821       0.01531836       0.01563760
Sr       6.41532852      10.31014411      10.31048240      -0.00068010       0.00062753       0.00062903
O        8.39980729       0.60977994      10.34338352      -0.00516257      -0.00527155      -0.00584271
O        6.44191066       0.60356492       0.60372835      -0.00401290      -0.00533435      -0.00534448
O        8.39985972      10.34296996       0.61008735      -0.00518149      -0.00578197      -0.00530041
Ti       8.33973772       0.54987784       0.54982475       0.01484008       0.01537363       0.01547139
Sr       6.41114490      10.30598679       2.51627666      -0.00071736       0.00061689       0.00043165
O        8.39562367       0.60562262       2.54917778      -0.00516278      -0.00529693      -0.00471516
O        6.44400247       0.60564358       4.50083122      -0.00326580      -0.00534278      -0.00533961
O        8.40195153      10.34504862       4.50719022      -0.00494509      -0.00767163      -0.00444680
Ti       8.34182953       0.55195650       4.44692762       0.01452910       0.01543327       0.01504720
Sr       6.40902645       2.51405305       6.40913379      -0.00331854       0.00039112       0.00052595
O        8.39982061       4.50470748       6.44840352      -0.00482725      -0.00112313      -0.00677981
O        6.44819941       4.50472844       8.40005696       0.00552024      -0.00505478      -0.00566255
O        8.39983308       2.55311488       8.40004735      -0.00498299      -0.00218258      -0.00654795
Ti       8.34602647       4.45104136       8.34615336       0.01644838       0.00188881       0.03056600
Sr       6.41111826       2.51613171      10.30623666      -0.00071753       0.00043006       0.00061848
O        8.40191242       4.50678614      10.34550639      -0.00492609      -0.00441762      -0.00773227
O        6.44401579       4.50057112       0.60585122      -0.00326577      -0.00532949      -0.00535295
O        8.39564946       2.54895756       0.60584161      -0.00518168      -0.00465461      -0.00532578
Ti       8.34184285       4.44688404       0.55194762       0.01452906       0.01495002       0.01553093
Sr       6.40693464       2.51197439       2.51203092      -0.00067828       0.00044532       0.00044618
O        8.39772880       4.50262882       2.55130065      -0.00496253      -0.00435095      -0.00277568
O        6.44610760       4.50264978       4.50295409       0.00491000      -0.00506978      -0.00507989
O        8.39774127       2.55103622       4.50294448      -0.00498137      -0.00271584      -0.00438052
Ti       8.34393466       4.44896270       4.44905049       0.01645435       0.00223893       0.00234023
Sr      10.30818382       6.41314960       6.41337581       0.00924008       0.00039514       0.00039798
O        0.60782126       8.39753298       6.44628809      -0.00710069      -0.00528301      -0.00521522
O       10.34735678       8.40382499       8.40429898      -0.00942986      -0.00616207      -0.00617223
O        0.60783373       6.44594038       8.39793192      -0.00711960      -0.00515485      -0.00531200
Ti       0.55402712       8.34386686       8.34403793       0.02085325       0.01521724       0.01531472
Sr      10.31027563       6.41522826      10.31047868       0.00186331       0.00044420       0.00135734
O        0.60991307       8.39961164      10.34339096      -0.00633817      -0.00530701      -0.00519642
O       10.34317316       8.39966767       0.61009324      -0.00632546      -0.00542971      -0.00528519
O        0.60365011       6.44178306       0.60372618      -0.00619915      -0.00517497      -0.00533458
Ti       0.54984350       8.33970954       0.54983219       0.01707734       0.01528805       0.01533853
Sr      10.30609201       6.41107094       2.51627294       0.00187193       0.00043157      -0.00025660
O        0.60572945       8.39545432       2.54918522      -0.00631771      -0.00531062      -0.00520133
O       10.34526497       8.40174633       4.50719611      -0.00910553      -0.00622356      -0.00447106
O        0.60574192       6.44386172       4.50082905      -0.00711294      -0.00515645      -0.00538490
Ti       0.55193531       8.34178820       4.44693506       0.02049850       0.01522889       0.01536674
Sr      10.31028895      10.31015580       6.41549868       0.00186297       0.00135463       0.00044636
O        0.60361100       0.60352058       6.44204235      -0.00618033      -0.00530562      -0.00523542
O       10.34314652       0.60981259       8.40005324      -0.00632585      -0.00527525      -0.00543971
O        0.60993886      10.34294658       8.40005479      -0.00635715      -0.00513608      -0.00533600
Ti       0.54981686       0.54985446       8.33979219       0.01707781       0.01524122       0.01538551
Sr      10.31238076      10.31223446      10.31260155       0.00112756       0.00075905       0.00076113
O        0.60570281       0.60559924      10.33914522      -0.00576376      -0.00530918      -0.00523296
O       10.33896290       0.60565527       0.60584750      -0.00584988      -0.00531129      -0.00532133
O        0.60575524      10.33878926       0.60584905      -0.00578263      -0.00517254      -0.00533815
Ti       0.54563324       0.54569714       0.54558645       0.01640133       0.01527790       0.01537531
Sr      10.30819714      10.30807714       2.51839581       0.00114286       0.00078116       0.00032046
O        0.60151919       0.60144192       2.54493948      -0.00575932      -0.00530877      -0.00522097
O       10.34105471       0.60773393       4.50295037      -0.00623321      -0.00528721      -0.00517038
O        0.60784705      10.34086792       4.50295192      -0.00633853      -0.00515139      -0.00535333
Ti       0.54772505       0.54777580       4.44268932       0.01698756       0.01524367       0.01537798
Sr      10.30607869       2.51614340       6.41125294       0.00187190      -0.00025834       0.00043431
O        0.60571613       4.50052678       6.44416522      -0.00709405      -0.00535586      -0.00521682
O       10.34525165       4.50681879       8.40217611      -0.00910706      -0.00446113      -0.00623343
O        0.60572860       2.54893418       8.39580905      -0.00633682      -0.00514104      -0.00533960
Ti       0.55192199       4.44686066       8.34191506       0.02050023       0.01526952       0.01532602
Sr      10.30817050       2.51822206      10.30835581       0.00114317       0.00031902       0.00078303
O        0.60780794       4.50260544      10.34126809      -0.00631967      -0.00532433      -0.00521166
O       10.34106803       4.50266147       0.60797037      -0.00623325      -0.00516045      -0.00529715
O        0.60154498       2.54477686       0.60160331      -0.00577823      -0.00516054      -0.00533775
Ti       0.54773837       4.44270334       0.54770932       0.01698751       0.01528069       0.01534083
Sr      10.30398688       2.51406474       2.51415007       0.00112029       0.00031987       0.00032081
O        0.60362432       4.49844812       2.54706235      -0.00628718      -0.00532131      -0.00518863
O       10.34315984       4.50474013       4.50507324      -0.00869633      -0.00439168      -0.00440185
O        0.60363679       2.54685552       4.49870618      -0.00630617      -0.00512827      -0.00535034
Ti       0.54983018       4.44478200       4.44481219       0.02005448       0.01526146       0.01535867
Sr       2.51407934       6.40896890       6.40913751       0.00904817       0.00067242       0.00067689
O        4.50487350       8.39962333       6.44840724      -0.00469076      -0.00110976      -0.00395958
O        2.55325230       8.39964429       8.40006068      -0.00949088      -0.00435152      -0.00436138
O        4.50488597       6.44803073       8.40005107      -0.00471296      -0.00390515      -0.00113535
Ti       4.45107936       8.34595721       8.34615708       0.01677679       0.00089978       0.00099384
Sr       2.51617115       6.41104756      10.30624038       0.00185933       0.00060937      -0.00041048
O        4.50696531       8.40170199      10.34551011      -0.00449861      -0.00424608      -0.00250934
O        2.54906868       8.39548697       0.60585494      -0.00619830      -0.00521310      -0.00536122
O        4.50070235       6.44387341       0.60584533      -0.00486278      -0.00534238      -0.00538976
Ti       4.44689574       8.34179989       0.55195134       0.01447551       0.01510154       0.01542277
Sr       2.51198753       6.40689024       2.51203464       0.00184797       0.00061968       0.00134185
O        4.50278169       8.39754467       2.55130437      -0.00449184      -0.00409329      -0.00825835
O        2.55116049       8.39756563       4.50295781      -0.00906778      -0.00429049      -0.00625621
O        4.50279416       6.44595207       4.50294820      -0.00330880      -0.00372825      -0.00831459
Ti       4.44898755       8.34387855       4.44905421       0.01643479       0.00058463       0.02844724
Sr       2.51618447      10.30597510       6.41126038       0.00185912      -0.00041283       0.00061278
O        4.50066324       0.60561093       6.44416150      -0.00484387      -0.00536058      -0.00540353
O        2.54904204       0.60563189       8.39581494      -0.00619866      -0.00535104      -0.00522324
O        4.50699110      10.34503693       8.40217394      -0.00451730      -0.00244718      -0.00427440
Ti       4.44686910       0.55194481       8.34191134       0.01447530       0.01532540       0.01519952
Sr       2.51827628      10.30805376      10.30836325       0.00111367       0.00021131       0.00021329
O        4.50275505       0.60768959      10.34126437      -0.00503920      -0.00535609      -0.00466014
O        2.54485842       0.60147457       0.60160920      -0.00576201      -0.00532954      -0.00533966
O        4.50280748      10.34087961       0.60796820      -0.00505807      -0.00459984      -0.00538521
Ti       4.44268548       0.54778749       0.54770560       0.01480772       0.01525774       0.01535506
Sr       2.51409266      10.30389644       2.51415751       0.00113586       0.00021196       0.00077693
O        4.49857143       0.60353227       2.54705863      -0.00504067      -0.00533072      -0.00578842
O        2.54695023       0.60355323       4.49871207      -0.00611524      -0.00533895      -0.00549323
O        4.50489929      10.34295827       4.50507107      -0.00454094      -0.00273004      -0.00626396
Ti       4.44477729       0.54986615       4.44480847       0.01451673       0.01520874       0.01577675
Sr       2.51197421       2.51196270       6.40701464       0.00184775       0.00133993       0.00062201
O        4.50276837       4.50261713       6.44628437      -0.00329318      -0.00828808      -0.00378284
O        2.55114717       4.50263809       8.39793781      -0.00906972      -0.00624603      -0.00430068
O        4.50278084       2.55102453       8.39792820      -0.00451053      -0.00819885      -0.00412212
Ti       4.44897423       4.44895101       8.34403421       0.01643645       0.02835378       0.00067904
Sr       2.51406602       2.51404136      10.30411751       0.00113589       0.00077553       0.00021349
O        4.50486018       4.50469579      10.34338724      -0.00452212      -0.00623519      -0.00279047
O        2.54696355       4.49848077       0.60373207      -0.00611525      -0.00548300      -0.00534912
O        4.49859722       2.54686721       0.60372246      -0.00505953      -0.00572791      -0.00535986
Ti       4.44479061       4.44479369       0.54982847       0.01451672       0.01567896       0.01530604
Sr       2.50988240       2.50988404       2.50991177       0.00112017       0.00075374       0.00075429
O        4.50067656       4.50053847       2.54918150      -0.00453467      -0.00629027      -0.00772165
O        2.54905536       4.50055943       4.50083494      -0.00855696      -0.00632141      -0.00633131
O        4.50068903       2.54894587       4.50082533      -0.00455349      -0.00766037      -0.00631864
Ti       4.44688242       4.44687235       4.44693134       0.01616345       0.02799463       0.02808829
135
Lattice="11.69115672 0.00627105 0.00635745 0.00631539 11.6910186 0.00636861 0.00627543 0.00623598 11.69130861" Properties=species:S:1:pos:R:3:forces:R:3 energy=-3149777.14632406 free_energy=-3149777.14632406 pbc="T T T"
Sr       6.41113158       6.41105925       6.41125666       0.00086462       0.00561529       0.00118930
O        8.40192574       8.40171368       6.45052639       0.01057580      -0.00538452      -0.01610989
O        6.45029917       8.40172931       8.39217983      -0.00641216      -0.00488428       0.05251773
O        8.40193821       6.45012108       8.40217022      -0.00545783      -0.00577304      -0.00069710
Ti       8.34813160       8.34804756       8.34827623       0.01679722       0.01538758      -0.00442966
Sr       6.41322339       6.41313791      10.30835953       0.00023803      -0.00392617      -0.00005935
O        8.40401755       8.40379234      10.34762926      -0.02023037      -0.00522797      -0.01740988
O        6.44612092       8.39757732       0.60797409      -0.00501025      -0.00530365      -0.00783335
O        8.39775459       6.44596376       0.60796448      -0.00586890      -0.00355415      -0.00648466
Ti       8.34394798       8.34389024       0.55407049       0.01681661       0.01502331       0.02567362
Sr       6.40903977       6.40898059       2.51415379       0.00053984       0.00046973       0.00231009
O        8.39983393       8.39963502       2.55342352      -0.00535857      -0.00529609      -0.00969903
O        6.44821273       8.39965598       4.50507696      -0.00528820      -0.00536486      -0.00782568
O        8.39984640       6.44804242       4.50506735      -0.00486560      -0.00644147      -0.00647534
Ti       8.34603979       8.34596890       4.45117336       0.01400582       0.01543303       0.02482629
Sr       6.41323671      10.30806545       6.41337953       0.00085184      -0.00364473       0.00000696
O        8.39771548       0.60770128       6.44628065      -0.00491606      -0.00483775      -0.00448218
O        6.44609428       0.60772224       8.39793409      -0.00525380      -0.00537779      -0.00402524
O        8.40404334      10.34712728       8.40429309      -0.00552085      -0.00480740      -0.00088125
Ti       8.34392134       0.55403516       8.34403049       0.01548572       0.01513023       0.01347278
Sr       6.41532852      10.31014411      10.31048240       0.00025212       0.00363655      -0.00146278
O        8.39980729       0.60977994      10.34338352      -0.00582861      -0.00582003      -0.00443613
O        6.44191066       0.60356492       0.60372835      -0.00534639      -0.00635333      -0.00641398
O        8.39985972      10.34296996       0.61008735      -0.00589530      -0.00671783      -0.00647526
Ti       8.33973772       0.54987784       0.54982475       0.01631483       0.01667073       0.01628939
Sr       6.41114490      10.30598679       2.51627666       0.00053894       0.00056985       0.00230639
O        8.39562367       0.60562262       2.54917778      -0.00531965      -0.00530910      -0.00680752
O        6.44400247       0.60564358       4.50083122      -0.00508730      -0.00428929      -0.00640843
O        8.40195153      10.34504862       4.50719022      -0.00482607      -0.00387202      -0.00648507
Ti       8.34182953       0.55195650       4.44692762       0.01447544       0.01405522       0.01642261
Sr       6.40902645       2.51405305       6.40913379       0.00053463       0.00048530       0.00014612
O        8.39982061       4.50470748       6.44840352      -0.00491658      -0.00584846      -0.00453923
O        6.44819941       4.50472844       8.40005696      -0.00525889      -0.00529147      -0.00402641
O        8.39983308       2.55311488       8.40004735      -0.00538478      -0.00523172      -0.00488133
Ti       8.34602647       4.45104136       8.34615336       0.01546631       0.01562394       0.01357827
Sr       6.41111826       2.51613171      10.30623666       0.00052923       0.00057395       0.00005762
O        8.40191242       4.50678614      10.34550639      -0.00582669      -0.00478654      -0.00446117
O        6.44401579       4.50057112       0.60585122      -0.00535358      -0.00427920      -0.00640383
O        8.39564946       2.54895756       0.60584161      -0.00553165      -0.00514728      -0.00558432
Ti       8.34184285       4.44688404       0.55194762       0.01627628       0.01397015       0.01623705
Sr       6.40693464       2.51197439       2.51203092       0.00053153       0.00051470       0.00138695
O        8.39772880       4.50262882       2.55130065      -0.00532134      -0.00528666      -0.00672860
O        6.44610760       4.50264978       4.50295409      -0.00508166      -0.00635497      -0.00641053
O        8.39774127       2.55103622       4.50294448      -0.00517109      -0.00517945      -0.00552124
Ti       8.34393466       4.44896270       4.44905049       0.01451773       0.01639819       0.01637369
Sr      10.30818382       6.41314960       6.41337581      -0.00046964       0.00172404       0.00016016
O        0.60782126       8.39753298       6.44628809      -0.00536354      -0.00535729      -0.00477789
O       10.34735678       8.40382499       8.40429898      -0.00381510      -0.00524205      -0.00570773
O        0.60783373       6.44594038       8.39793192      -0.00532308      -0.00545091      -0.00488212
Ti       0.55402712       8.34386686       8.34403793       0.01525526       0.01531979       0.01346283
Sr      10.31027563       6.41522826      10.31047868       0.00147643      -0.00045124      -0.00027949
O        0.60991307       8.39961164      10.34339096      -0.00520995      -0.00528602      -0.00420222
O       10.34317316       8.39966767       0.61009324      -0.00773755      -0.00537343      -0.00699037
O        0.60365011       6.44178306       0.60372618      -0.00531210      -0.00468959      -0.00552737
Ti       0.54984350       8.33970954       0.54983219       0.01538453       0.01523351       0.01615926
Sr      10.30609201       6.41107094       2.51627294       0.00054982       0.00050379       0.00152626
O        0.60572945       8.39545432       2.54918522      -0.00527019      -0.00530695      -0.00745641
O       10.34526497       8.40174633       4.50719611      -0.00302859      -0.00528930      -0.00703951
O        0.60574192       6.44386172       4.50082905      -0.00533492      -0.00559705      -0.00557610
Ti       0.55193531       8.34178820       4.44693506       0.01510996       0.01534498       0.01671991
Sr      10.31028895      10.31015580       6.41549868      -0.00053143      -0.00071328       0.00016011
O        0.60361100       0.60352058       6.44204235      -0.00532315      -0.00514899      -0.00494306
O       10.34314652       0.60981259       8.40005324      -0.00525107      -0.00528861      -0.00499621
O        0.60993886      10.34294658       8.40005479      -0.00533380      -0.00492602      -0.00484680
Ti       0.54981686       0.54985446       8.33979219       0.01535902       0.01515034       0.01462674
Sr      10.31238076      10.31223446      10.31260155       0.00155039       0.00152013      -0.00023917
O        0.60570281       0.60559924      10.33914522      -0.00530619      -0.00543840      -0.00484201
O       10.33896290       0.60565527       0.60584750      -0.00558868      -0.00549161      -0.00554547
O        0.60575524      10.33878926       0.60584905      -0.00530566      -0.00562871      -0.00553710
Ti       0.54563324       0.54569714       0.54558645       0.01533023       0.01562754       0.01571103
Sr      10.30819714      10.30807714       2.51839581       0.00053686       0.00053850       0.00149610
O        0.60151919       0.60144192       2.54493948      -0.00530568      -0.00531075      -0.00595409
O       10.34105471       0.60773393       4.50295037      -0.00489469      -0.00515274      -0.00553820
O        0.60784705      10.34086792       4.50295192      -0.00534203      -0.00478957      -0.00558331
Ti       0.54772505       0.54777580       4.44268932       0.01531515       0.01498586       0.01586845
Sr      10.30607869       2.51614340       6.41125294       0.00041012       0.00051753       0.00035879
O        0.60571613       4.50052678       6.44416522      -0.00532142      -0.00550584      -0.00496022
O       10.34525165       4.50681879       8.40217611      -0.00523092      -0.00537836      -0.00499919
O        0.60572860       2.54893418       8.39580905      -0.00533288      -0.00519862      -0.00510947
Ti       0.55192199       4.44686066       8.34191506       0.01534829       0.01547706       0.01464384
Sr      10.30817050       2.51822206      10.30835581       0.00068696       0.00053224       0.00025049
O        0.60780794       4.50260544      10.34126809      -0.00530711      -0.00518134      -0.00485233
O       10.34106803       4.50266147       0.60797037      -0.00558106      -0.00514603      -0.00553894
O        0.60154498       2.54477686       0.60160331      -0.00532899      -0.00517451      -0.00545969
Ti       0.54773837       4.44270334       0.54770932       0.01535195       0.01497909       0.01569684
Sr      10.30398688       2.51406474       2.51415007       0.00052794       0.00051767       0.00096236
O        0.60362432       4.49844812       2.54706235      -0.00530572      -0.00530386      -0.00593047
O       10.34315984       4.50474013       4.50507324      -0.00491119      -0.00550357      -0.00554565
O        0.60363679       2.54685552       4.49870618      -0.00533549      -0.00517824      -0.00545576
Ti       0.54983018       4.44478200       4.44481219       0.01529622       0.01559017       0.01585967
Sr       2.51407934       6.40896890       6.40913751       0.00136569       0.00156148       0.00013108
O        4.50487350       8.39962333       6.44840724      -0.02040376      -0.00542651      -0.01527991
O        2.55325230       8.39964429       8.40006068      -0.00641403      -0.00524142      -0.00570603
O        4.50488597       6.44803073       8.40005107      -0.00522234      -0.00561439      -0.00088266
Ti       4.45107936       8.34595721       8.34615708       0.01410235       0.01535021      -0.00187657
Sr       2.51617115       6.41104756      10.30624038      -0.00034746      -0.00037794      -0.00027268
O        4.50696531       8.40170199      10.34551011       0.00965554      -0.00522167      -0.01689393
O        2.54906868       8.39548697       0.60585494      -0.00256157      -0.00538642      -0.00703832
O        4.50070235       6.44387341       0.60584533      -0.00482396      -0.00363518      -0.00648985
Ti       4.44689574       8.34179989       0.55195134       0.01308188       0.01508274       0.02518173
Sr       2.51198753       6.40689024       2.51203464       0.00047518       0.00048038       0.00154571
O        4.50278169       8.39754467       2.55130437      -0.00521177      -0.00530685      -0.00969171
O        2.55116049       8.39756563       4.50295781      -0.00716776      -0.00527986      -0.00699047
O        4.50279416       6.44595207       4.50294820      -0.00583080      -0.00630482      -0.00646553
Ti       4.44898755       8.34387855       4.44905421       0.01694330       0.01538476       0.02406186
Sr       2.51618447      10.30597510       6.41126038       0.00142941      -0.00056087       0.00012777
O        4.50066324       0.60561093       6.44416150      -0.00582887      -0.00479773      -0.00450490
O        2.54904204       0.60563189       8.39581494      -0.00518568      -0.00529512      -0.00499773
O        4.50699110      10.34503693       8.40217394      -0.00519343      -0.00490625      -0.00093936
Ti       4.44686910       0.55194481       8.34191134       0.01529650       0.01519305       0.01347686
Sr       2.51827628      10.30805376      10.30836325      -0.00042086       0.00146174      -0.00024872
O        4.50275505       0.60768959      10.34126437      -0.00470761      -0.00588930      -0.00448354
O        2.54485842       0.60147457       0.60160920      -0.00477060      -0.00550529      -0.00555151
O        4.50280748      10.34087961       0.60796820      -0.00475775      -0.00669028      -0.00649268
Ti       4.44268548       0.54778749       0.54770560       0.01445966       0.01671595       0.01633054
Sr       2.51409266      10.30389644       2.51415751       0.00048685       0.00056338       0.00152845
O        4.49857143       0.60353227       2.54705863      -0.00530660      -0.00531592      -0.00671423
O        2.54695023       0.60355323       4.49871207      -0.00551302      -0.00515196      -0.00553385
O        4.50489929      10.34295827       4.50507107      -0.00590414      -0.00396373      -0.00648732
Ti       4.44477729       0.54986615       4.44480847       0.01611653       0.01405762       0.01641522
Sr       2.51197421       2.51196270       6.40701464       0.00062955       0.00051414       0.00035929
O        4.50276837       4.50261713       6.44628437      -0.00582908      -0.00587598      -0.00455399
O        2.55114717       4.50263809       8.39793781      -0.00519322      -0.00536974      -0.00499680
O        4.50278084       2.55102453       8.39792820      -0.00530794      -0.00522924      -0.00484551
Ti       4.44897423       4.44895101       8.34403421       0.01530682       0.01553938       0.01359305
Sr       2.51406602       2.51404136      10.30411751       0.00035879       0.00053619       0.00024866
O        4.50486018       4.50469579      10.34338724      -0.00470869      -0.00472471      -0.00450837
O        2.54696355       4.49848077       0.60373207      -0.00481387      -0.00514628      -0.00554381
O        4.49859722       2.54686721       0.60372246      -0.00520729      -0.00516728      -0.00559091
Ti       4.44479061       4.44479369       0.54982847       0.01454642       0.01400090       0.01627570
Sr       2.50988240       2.50988404       2.50991177       0.00051053       0.00051863       0.00096732
O        4.50067656       4.50053847       2.54918150      -0.00530594      -0.00528086      -0.00663150
O        2.54905536       4.50055943       4.50083494      -0.00546433      -0.00549072      -0.00554026
O        4.50068903       2.54894587       4.50082533      -0.00546210      -0.00516108      -0.00553209
Ti       4.44688242       4.44687235       4.44693134       0.01603181       0.01633090       0.01635858
135
Lattice="11.69115672 0.00627105 0.00635745 0.00631539 11.6910186 0.00636861 0.00627543 0.00623598 11.69130861" Properties=species:S:1:pos:R:3:forces:R:3 energy=-3149777.14563989 free_energy=-3149777.14563989 pbc="T T T"
Sr       6.41113158       6.41105925       6.41125666       0.00175652       0.00175328      -0.01056509
O        8.40192037       8.40170835       6.44052639      -0.00653563      -0.00652707       0.21029634
O        6.45030454       8.40173464       8.40217983       0.02584569      -0.00599749      -0.01628960
O        8.40193821       6.45012108       8.40217022      -0.00601143       0.02587153      -0.01629574
Ti       8.34813160       8.34804756       8.34827623       0.01790024       0.01785072      -0.02717806
Sr       6.41322339       6.41313791      10.30835953      -0.00245191      -0.00245659       0.00487312
O        8.40401755       8.40379234      10.34762926      -0.00656984      -0.00656054      -0.04593848
O        6.44612092       8.39757732       0.60797409      -0.00476018      -0.00537027      -0.00978544
O        8.39775459       6.44596376       0.60796448      -0.00538327      -0.00473402      -0.00979190