625
Lattice="18.94217346 0.0 -0.0 0.0 19.44782553 -0.0 -0.0 -0.0 19.44782929" Properties=species:S:1:pos:R:3:forces:R:3 data_type=1d-strain energy=-14582319.0116471 free_energy=-14582319.0116471 stress="-0.06004233 0.0 -0.0 0.0 -0.01429448 -0.0 -0.0 -0.0 -0.01429425" pbc="T T T"
Sr       0.00000003       0.00000000       0.00000003      -0.00000018      -0.00000009      -0.00000022
Ti       1.89421735       1.94478253       1.94478294       0.00000011       0.00000081       0.00000236
O        1.89421735       1.94478256      -0.00000001      -0.00000009      -0.00000037       0.00000007
O        0.00000001       1.94478253       1.94478294      -0.00000050      -0.00000010      -0.00000059
O        1.89421735      -0.00000003       1.94478294      -0.00000000      -0.00000049      -0.00000062
Sr       0.00000000      -0.00000029       3.88956548      -0.00000009       0.00000102       0.00000343
Ti       1.89421734       1.94478249       5.83434883       0.00000020      -0.00000013       0.00000487
O        1.89421734       1.94478250       3.88956593      -0.00000001      -0.00000020      -0.00000513
O       -0.00000001       1.94478246       5.83434879      -0.00000017       0.00000019      -0.00000161
O        1.89421734      -0.00000007       5.83434878       0.00000010      -0.00000108      -0.00000180
Sr      -0.00000002      -0.00000049       7.77913079      -0.00000096       0.00000135       0.00000903
Ti       1.89421733       1.94478251       9.72391462       0.00000046       0.00000116       0.00000052
O        1.89421734       1.94478243       7.77913181      -0.00000013       0.00000024      -0.00001011
O       -0.00000002       1.94478254       9.72391464      -0.00000060      -0.00000031       0.00000012
O        1.89421733      -0.00000005       9.72391466      -0.00000006      -0.00000020      -0.00000014
Sr      -0.00000023       0.00000047      11.66869849       0.00000043      -0.00000197      -0.00000966
Ti       1.89421734       1.94478257      13.61348047       0.00000101       0.00000187      -0.00000625
O        1.89421734       1.94478265      11.66869746      -0.00000036      -0.00000089       0.00001045
O       -0.00000001       1.94478263      13.61348050      -0.00000065      -0.00000031       0.00000150
O        1.89421733       0.00000002      13.61348046      -0.00000006       0.00000034       0.00000224
Sr      -0.00000001       0.00000028      15.55826379      -0.00000042      -0.00000115      -0.00000280
Ti       1.89421736       1.94478256      17.50304633       0.00000047       0.00000165      -0.00000129
O        1.89421733       1.94478263      15.55826335      -0.00000015      -0.00000067       0.00000503
O        0.00000001       1.94478257      17.50304634      -0.00000035      -0.00000006       0.00000040
O        1.89421734       0.00000001      17.50304636       0.00000008      -0.00000012       0.00000034
Sr       0.00000002       3.88956497       0.00000001      -0.00000024       0.00000110      -0.00000007
Ti       1.89421734       5.83434765       1.94478293       0.00000174       0.00000109       0.00000156
O        1.89421736       5.83434764      -0.00000001      -0.00000035      -0.00000045       0.00000025
O        0.00000001       5.83434762       1.94478292      -0.00000082      -0.00000035      -0.00000021
O        1.89421735       3.88956511       1.94478294      -0.00000014      -0.00000188      -0.00000055
Sr      -0.00000002       3.88956484       3.88956553       0.00000036       0.00000152       0.00000295
Ti       1.89421734       5.83434762       5.83434882       0.00000175       0.00000062       0.00000472
O        1.89421738       5.83434760       3.88956592      -0.00000060      -0.00000047      -0.00000474
O       -0.00000001       5.83434758       5.83434878      -0.00000050      -0.00000029      -0.00000165
O        1.89421736       3.88956507       5.83434877      -0.00000029      -0.00000190      -0.00000170
Sr      -0.00000004       3.88956463       7.77913078      -0.00000076       0.00000235       0.00000927
Ti       1.89421733       5.83434764       9.72391459       0.00000059       0.00000163       0.00000090
O        1.89421735       5.83434756       7.77913179      -0.00000041      -0.00000025      -0.00000999
O       -0.00000002       5.83434765       9.72391467      -0.00000061      -0.00000057      -0.00000040
O        1.89421734       3.88956509       9.72391469      -0.00000016      -0.00000105      -0.00000054
Sr      -0.00000007       3.88956543      11.66869866       0.00000091      -0.00000063      -0.00001090
Ti       1.89421735       5.83434771      13.61348046      -0.00000016       0.00000204      -0.00000502
O        1.89421732       5.83434772      11.66869745      -0.00000002      -0.00000079       0.00001057
O        0.00000000       5.83434773      13.61348048      -0.00000078      -0.00000072       0.00000153
O        1.89421735       3.88956515      13.61348047      -0.00000029      -0.00000071       0.00000205
Sr       0.00000003       3.88956514      15.55826381      -0.00000038       0.00000042      -0.00000359
Ti       1.89421735       5.83434769      17.50304633       0.00000086       0.00000183      -0.00000166
O        1.89421733       5.83434771      15.55826335      -0.00000009      -0.00000077       0.00000478
O        0.00000001       5.83434770      17.50304632      -0.00000074      -0.00000073       0.00000063
O        1.89421737       3.88956514      17.50304635      -0.00000035      -0.00000158       0.00000048
Sr       0.00000001       7.77912987       0.00000005      -0.00000050       0.00000371      -0.00000041
Ti       1.89421735       9.72391274       1.94478294      -0.00000047      -0.00000016       0.00000211
O        1.89421734       9.72391278      -0.00000001       0.00000000       0.00000008       0.00000006
O        0.00000000       9.72391274       1.94478294      -0.00000009       0.00000004      -0.00000059
O        1.89421735       7.77913023       1.94478295      -0.00000019      -0.00000373      -0.00000068
Sr      -0.00000001       7.77912946       3.88956548      -0.00000057       0.00000589       0.00000320
Ti       1.89421736       9.72391271       5.83434882      -0.00000051      -0.00000018       0.00000460
O        1.89421733       9.72391272       3.88956592       0.00000028       0.00000016      -0.00000486
O        0.00000000       9.72391268       5.83434878      -0.00000008       0.00000023      -0.00000142
O        1.89421734       7.77913020       5.83434877      -0.00000005      -0.00000424      -0.00000173
Sr      -0.00000014       7.77912941       7.77913066       0.00000013       0.00000576       0.00001015
Ti       1.89421733       9.72391273       9.72391463       0.00000040      -0.00000006      -0.00000014
O        1.89421734       9.72391269       7.77913181       0.00000007       0.00000031      -0.00001011
O       -0.00000001       9.72391275       9.72391462      -0.00000029       0.00000003       0.00000028
O        1.89421734       7.77913022       9.72391466      -0.00000023      -0.00000313      -0.00000020
Sr      -0.00000010       7.77913036      11.66869847       0.00000021       0.00000127      -0.00000809
Ti       1.89421734       9.72391278      13.61348046       0.00000071       0.00000085      -0.00000475
O        1.89421736       9.72391286      11.66869746      -0.00000027      -0.00000038       0.00001057
O       -0.00000001       9.72391285      13.61348049      -0.00000031      -0.00000024       0.00000150
O        1.89421733       7.77913027      13.61348050      -0.00000010      -0.00000223       0.00000175
Sr      -0.00000006       7.77913023      15.55826378      -0.00000008       0.00000174      -0.00000286
Ti       1.89421734       9.72391279      17.50304633       0.00000065       0.00000014      -0.00000156
O        1.89421735       9.72391283      15.55826336      -0.00000027      -0.00000003       0.00000454
O        0.00000000       9.72391280      17.50304636      -0.00000038       0.00000003       0.00000018
O        1.89421733       7.77913026      17.50304634      -0.00000005      -0.00000287       0.00000059
Sr      -0.00000001      11.66869577      -0.00000003      -0.00000077      -0.00000409       0.00000020
Ti       1.89421735      13.61347785       1.94478294      -0.00000086      -0.00000277       0.00000196
O        1.89421734      13.61347788       0.00000000       0.00000023       0.00000073      -0.00000016
O        0.00000000      13.61347784       1.94478294       0.00000093       0.00000068      -0.00000043
O        1.89421735      11.66869526       1.94478294       0.00000018       0.00000445      -0.00000070
Sr       0.00000004      11.66869545       3.88956547      -0.00000005      -0.00000209       0.00000315
Ti       1.89421734      13.61347781       5.83434884      -0.00000088      -0.00000390       0.00000451
O        1.89421736      13.61347779       3.88956593       0.00000018       0.00000109      -0.00000507
O        0.00000000      13.61347779       5.83434880       0.00000088       0.00000080      -0.00000159
O        1.89421737      11.66869523       5.83434878       0.00000004       0.00000384      -0.00000179
Sr       0.00000003      11.66869530       7.77913081      -0.00000025      -0.00000257       0.00000934
Ti       1.89421734      13.61347784       9.72391465      -0.00000110      -0.00000227       0.00000047
O        1.89421734      13.61347774       7.77913182       0.00000031       0.00000138      -0.00001013
O       -0.00000002      13.61347785       9.72391464       0.00000067       0.00000053       0.00000010
O        1.89421734      11.66869526       9.72391465       0.00000011       0.00000454       0.00000004
Sr      -0.00000003      11.66869612      11.66869861      -0.00000131      -0.00000556      -0.00000933
Ti       1.89421734      13.61347789      13.61348047      -0.00000059      -0.00000166      -0.00000559
O        1.89421732      13.61347793      11.66869748       0.00000026       0.00000043       0.00001022
O       -0.00000001      13.61347795      13.61348049       0.00000041       0.00000028       0.00000163
O        1.89421734      11.66869530      13.61348047      -0.00000003       0.00000541       0.00000203
Sr      -0.00000008      11.66869599      15.55826379      -0.00000056      -0.00000496      -0.00000273
Ti       1.89421735      13.61347789      17.50304634      -0.00000078      -0.00000215      -0.00000149
O        1.89421733      13.61347792      15.55826337       0.00000023       0.00000072       0.00000452
O        0.00000000      13.61347791      17.50304634       0.00000073       0.00000044       0.00000044
O        1.89421735      11.66869530      17.50304633      -0.00000001       0.00000504       0.00000063
Sr       0.00000002      15.55826058      -0.00000002      -0.00000089      -0.00000112       0.00000006
Ti       1.89421736      17.50304294       1.94478295      -0.00000034       0.00000008       0.00000191
O        1.89421735      17.50304299       0.00000000       0.00000007      -0.00000016      -0.00000016
O        0.00000001      17.50304293       1.94478294       0.00000038       0.00000027      -0.00000053
O        1.89421733      15.55826038       1.94478294       0.00000026       0.00000114      -0.00000057
Sr       0.00000004      15.55826018       3.88956547      -0.00000095       0.00000042       0.00000320
Ti       1.89421735      17.50304290       5.83434882      -0.00000061      -0.00000027       0.00000485
O        1.89421734      17.50304292       3.88956593       0.00000024      -0.00000006      -0.00000502
O        0.00000000      17.50304287       5.83434880       0.00000056       0.00000032      -0.00000152
O        1.89421734      15.55826034       5.83434878       0.00000027       0.00000066      -0.00000177
Sr       0.00000004      15.55826013       7.77913075      -0.00000118       0.00000080       0.00000951
Ti       1.89421733      17.50304292       9.72391464      -0.00000036       0.00000030       0.00000037
O        1.89421734      17.50304287       7.77913182       0.00000009       0.00000022      -0.00001025
O       -0.00000003      17.50304294       9.72391464       0.00000047       0.00000011      -0.00000001
O        1.89421732      15.55826037       9.72391466       0.00000012       0.00000127      -0.00000012
Sr      -0.00000012      15.55826094      11.66869848      -0.00000047      -0.00000217      -0.00000909
Ti       1.89421733      17.50304299      13.61348047      -0.00000063       0.00000125      -0.00000604
O        1.89421731      17.50304306      11.66869747       0.00000022      -0.00000060       0.00001030
O       -0.00000002      17.50304305      13.61348048       0.00000054      -0.00000018       0.00000168
O        1.89421732      15.55826043      13.61348048       0.00000017       0.00000193       0.00000203
Sr       0.00000007      15.55826079      15.55826373      -0.00000119      -0.00000176      -0.00000307
Ti       1.89421735      17.50304297      17.50304634      -0.00000030       0.00000071      -0.00000131
O        1.89421734      17.50304302      15.55826336       0.00000005      -0.00000012       0.00000484
O        0.00000000      17.50304301      17.50304634       0.00000069      -0.00000001       0.00000052
O        1.89421733      15.55826042      17.50304635       0.00000019       0.00000168       0.00000048
Sr       3.78843465       0.00000004       0.00000000       0.00000025      -0.00000070       0.00000001
Ti       5.68265203       1.94478254       1.94478294       0.00000070       0.00000096       0.00000098
O        5.68265207       1.94478257      -0.00000001      -0.00000039      -0.00000050       0.00000026
O        3.78843468       1.94478253       1.94478294       0.00000003      -0.00000022      -0.00000056
O        5.68265204      -0.00000001       1.94478293      -0.00000015      -0.00000097      -0.00000039
Sr       3.78843471      -0.00000030       3.88956550      -0.00000026       0.00000024       0.00000297
Ti       5.68265204       1.94478249       5.83434881       0.00000021       0.00000055       0.00000554
O        5.68265203       1.94478248       3.88956592      -0.00000005      -0.00000013      -0.00000483
O        3.78843468       1.94478247       5.83434879       0.00000008      -0.00000009      -0.00000163
O        5.68265203      -0.00000007       5.83434880      -0.00000010      -0.00000139      -0.00000194
Sr       3.78843471      -0.00000056       7.77913080      -0.00000022       0.00000075       0.00000935
Ti       5.68265203       1.94478252       9.72391464      -0.00000019       0.00000103       0.00000018
O        5.68265203       1.94478245       7.77913180      -0.00000012      -0.00000011      -0.00001003
O        3.78843466       1.94478253       9.72391465       0.00000026      -0.00000034      -0.00000018
O        5.68265202      -0.00000005       9.72391463      -0.00000017      -0.00000039      -0.00000007
Sr       3.78843455       0.00000026      11.66869849       0.00000090      -0.00000193      -0.00001012
Ti       5.68265202       1.94478260      13.61348044      -0.00000035       0.00000258      -0.00000500
O        5.68265202       1.94478263      11.66869746       0.00000009      -0.00000086       0.00001001
O        3.78843466       1.94478263      13.61348047      -0.00000015      -0.00000049       0.00000173
O        5.68265200       0.00000004      13.61348051       0.00000006      -0.00000011       0.00000166
Sr       3.78843450       0.00000010      15.55826379       0.00000091      -0.00000134      -0.00000305
Ti       5.68265203       1.94478257      17.50304633       0.00000044       0.00000229      -0.00000179
O        5.68265202       1.94478262      15.55826334       0.00000002      -0.00000067       0.00000506
O        3.78843468       1.94478260      17.50304633      -0.00000037      -0.00000052       0.00000058
O        5.68265203       0.00000002      17.50304633      -0.00000009      -0.00000025       0.00000065
Sr       3.78843471       3.88956497       0.00000002       0.00000017       0.00000117      -0.00000023
Ti       5.68265202       5.83434764       1.94478294       0.00000018       0.00000214       0.00000050
O        5.68265205       5.83434770      -0.00000002      -0.00000011      -0.00000095       0.00000060
O        3.78843468       5.83434765       1.94478294      -0.00000041      -0.00000055      -0.00000044
O        5.68265204       3.88956511       1.94478292      -0.00000009      -0.00000204      -0.00000027
Sr       3.78843469       3.88956473       3.88956554      -0.00000036       0.00000204       0.00000356
Ti       5.68265203       5.83434761       5.83434881       0.00000074       0.00000136       0.00000590
O        5.68265204       5.83434763       3.88956591      -0.00000010      -0.00000069      -0.00000453
O        3.78843468       5.83434759       5.83434878      -0.00000046      -0.00000032      -0.00000158
O        5.68265204       3.88956507       5.83434882      -0.00000016      -0.00000239      -0.00000216
Sr       3.78843474       3.88956458       7.77913079      -0.00000022       0.00000302       0.00000893
Ti       5.68265201       5.83434761       9.72391463       0.00000113       0.00000332      -0.00000007
O        5.68265204       5.83434759       7.77913180      -0.00000025      -0.00000051      -0.00001004
O        3.78843467       5.83434767       9.72391465      -0.00000050      -0.00000084      -0.00000005
O        5.68265204       3.88956508       9.72391462      -0.00000015      -0.00000133      -0.00000002
Sr       3.78843463       3.88956546      11.66869850       0.00000020      -0.00000103      -0.00000923
Ti       5.68265202       5.83434768      13.61348044       0.00000165       0.00000269      -0.00000402
O        5.68265208       5.83434779      11.66869746      -0.00000056      -0.00000139       0.00001022
O        3.78843467       5.83434773      13.61348050      -0.00000052      -0.00000064       0.00000131
O        5.68265206       3.88956516      13.61348050      -0.00000032      -0.00000108       0.00000159
Sr       3.78843465       3.88956522      15.55826376       0.00000071       0.00000004      -0.00000352
Ti       5.68265204       5.83434767      17.50304633       0.00000053       0.00000263      -0.00000204
O        5.68265206       5.83434774      15.55826334      -0.00000028      -0.00000098       0.00000493
O        3.78843469       5.83434770      17.50304634      -0.00000089      -0.00000063       0.00000037
O        5.68265206       3.88956514      17.50304633      -0.00000021      -0.00000164       0.00000068
Sr       3.78843456       7.77913002       0.00000002       0.00000072       0.00000276      -0.00000029
Ti       5.68265203       9.72391276       1.94478295      -0.00000023      -0.00000348       0.00000026
O        5.68265199       9.72391273       0.00000000       0.00000029       0.00000093       0.00000032
O        3.78843468       9.72391275       1.94478292       0.00000023       0.00000031      -0.00000021
O        5.68265204       7.77913023       1.94478292      -0.00000013      -0.00000277      -0.00000020
Sr       3.78843471       7.77912974       3.88956554      -0.00000006       0.00000339       0.00000345
Ti       5.68265204       9.72391272       5.83434880       0.00000045      -0.00000328       0.00000591
O        5.68265203       9.72391267       3.88956592      -0.00000013       0.00000107      -0.00000474
O        3.78843469       9.72391272       5.83434880       0.00000035       0.00000017      -0.00000167
O        5.68265205       7.77913020       5.83434882      -0.00000024      -0.00000316      -0.00000219
Sr       3.78843461       7.77912964       7.77913076       0.00000113       0.00000398       0.00000955
Ti       5.68265203       9.72391275       9.72391464      -0.00000079      -0.00000324       0.00000026
O        5.68265203       9.72391264       7.77913181      -0.00000003       0.00000125      -0.00001008
O        3.78843468       9.72391275       9.72391465       0.00000000       0.00000036      -0.00000011
O        5.68265204       7.77913021       9.72391465      -0.00000013      -0.00000209      -0.00000015
Sr       3.78843460       7.77913025      11.66869868       0.00000090       0.00000210      -0.00001191
Ti       5.68265203       9.72391279      13.61348046      -0.00000060      -0.00000162      -0.00000351
O        5.68265201       9.72391281      11.66869747       0.00000020       0.00000038       0.00001029
O        3.78843468       9.72391284      13.61348050      -0.00000035      -0.00000009       0.00000138
O        5.68265206       7.77913026      13.61348053      -0.00000025      -0.00000154       0.00000142
Sr       3.78843458       7.77913012      15.55826381       0.00000119       0.00000213      -0.00000343
Ti       5.68265204       9.72391279      17.50304634      -0.00000081      -0.00000265      -0.00000247
O        5.68265202       9.72391278      15.55826336       0.00000005       0.00000075       0.00000461
O        3.78843469       9.72391282      17.50304634      -0.00000068       0.00000007       0.00000052
O        5.68265205       7.77913026      17.50304634      -0.00000009      -0.00000228       0.00000065
Sr       3.78843460      11.66869591       0.00000000       0.00000027      -0.00000552      -0.00000011
Ti       5.68265203      13.61347783       1.94478295       0.00000060      -0.00000036      -0.00000021
O        5.68265201      13.61347791       0.00000000      -0.00000017       0.00000022       0.00000017
O        3.78843469      13.61347786       1.94478294      -0.00000003       0.00000050      -0.00000041
O        5.68265199      11.66869527       1.94478291       0.00000002       0.00000431      -0.00000008
Sr       3.78843484      11.66869557       3.88956542      -0.00000171      -0.00000340       0.00000378
Ti       5.68265203      13.61347779       5.83434882       0.00000002      -0.00000218       0.00000523
O        5.68265198      13.61347784       3.88956593       0.00000007       0.00000044      -0.00000468
O        3.78843468      13.61347780       5.83434879       0.00000066       0.00000077      -0.00000143
O        5.68265201      11.66869523       5.83434881      -0.00000008       0.00000433      -0.00000212
Sr       3.78843485      11.66869547       7.77913079      -0.00000140      -0.00000402       0.00000899
Ti       5.68265201      13.61347781       9.72391467       0.00000089      -0.00000019       0.00000118
O        5.68265200      13.61347780       7.77913182      -0.00000011       0.00000075      -0.00001036
O        3.78843467      13.61347787       9.72391464       0.00000022       0.00000034      -0.00000005
O        5.68265200      11.66869525       9.72391465      -0.00000000       0.00000502      -0.00000009
Sr       3.78843468      11.66869609      11.66869848      -0.00000038      -0.00000548      -0.00000918
Ti       5.68265202      13.61347788      13.61348047       0.00000032      -0.00000025      -0.00000484
O        5.68265201      13.61347798      11.66869749      -0.00000016      -0.00000011       0.00000994
O        3.78843468      13.61347795      13.61348049      -0.00000037       0.00000031       0.00000167
O        5.68265201      11.66869530      13.61348050       0.00000002       0.00000568       0.00000177
Sr       3.78843464      11.66869612      15.55826378       0.00000026      -0.00000628      -0.00000303
Ti       5.68265203      13.61347786      17.50304635       0.00000061      -0.00000014      -0.00000157
O        5.68265201      13.61347798      15.55826337      -0.00000018       0.00000003       0.00000455
O        3.78843469      13.61347792      17.50304635      -0.00000057       0.00000044       0.00000041
O        5.68265199      11.66869529      17.50304633       0.00000013       0.00000536       0.00000068
Sr       3.78843456      15.55826064      -0.00000003       0.00000063      -0.00000148      -0.00000023
Ti       5.68265204      17.50304296       1.94478295       0.00000068      -0.00000007       0.00000055
O        5.68265203      17.50304297       0.00000000      -0.00000018       0.00000004       0.00000012
O        3.78843469      17.50304295       1.94478293      -0.00000025       0.00000002      -0.00000038
O        5.68265200      15.55826038       1.94478292      -0.00000008       0.00000090      -0.00000015
Sr       3.78843459      15.55826025       3.88956549       0.00000022       0.00000037       0.00000361
Ti       5.68265203      17.50304291       5.83434880      -0.00000012       0.00000009       0.00000483
O        5.68265201      17.50304290       3.88956592      -0.00000011      -0.00000003      -0.00000461
O        3.78843469      17.50304288       5.83434881      -0.00000013       0.00000014      -0.00000167
O        5.68265197      15.55826034       5.83434881       0.00000016       0.00000030      -0.00000203
Sr       3.78843462      15.55826001       7.77913073       0.00000050       0.00000151       0.00000946
Ti       5.68265201      17.50304293       9.72391466       0.00000067      -0.00000011       0.00000056
O        5.68265200      17.50304284       7.77913181      -0.00000001       0.00000025      -0.00001042
O        3.78843467      17.50304293       9.72391464      -0.00000029       0.00000006      -0.00000002
O        5.68265199      15.55826036       9.72391466      -0.00000016       0.00000115      -0.00000027
Sr       3.78843456      15.55826086      11.66869860       0.00000040      -0.00000237      -0.00000965
Ti       5.68265203      17.50304302      13.61348047       0.00000009       0.00000129      -0.00000454
O        5.68265201      17.50304302      11.66869747      -0.00000011      -0.00000033       0.00001039
O        3.78843468      17.50304304      13.61348050      -0.00000064      -0.00000028       0.00000152
O        5.68265200      15.55826043      13.61348052       0.00000002       0.00000197       0.00000171
Sr       3.78843455      15.55826074      15.55826377       0.00000142      -0.00000180      -0.00000299
Ti       5.68265205      17.50304299      17.50304635       0.00000030       0.00000037      -0.00000170
O        5.68265200      17.50304303      15.55826337      -0.00000000      -0.00000017       0.00000456
O        3.78843470      17.50304301      17.50304634      -0.00000099      -0.00000011       0.00000051
O        5.68265202      15.55826041      17.50304633      -0.00000014       0.00000165       0.00000065
Sr       7.57686940       0.00000000       0.00000000      -0.00000050      -0.00000028      -0.00000012
Ti       9.47108674       1.94478255       1.94478294      -0.00000028       0.00000049       0.00000195
O        9.47108675       1.94478256       0.00000000       0.00000026      -0.00000011      -0.00000020
O        7.57686940       1.94478253       1.94478293      -0.00000040      -0.00000011      -0.00000036
O        9.47108674      -0.00000001       1.94478294       0.00000004      -0.00000032      -0.00000060
Sr       7.57686934      -0.00000023       3.88956546      -0.00000006       0.00000065       0.00000347
Ti       9.47108673       1.94478252       5.83434881       0.00000004       0.00000023       0.00000555
O        9.47108673       1.94478249       3.88956592       0.00000024      -0.00000004      -0.00000495
O        7.57686939       1.94478247       5.83434879      -0.00000057      -0.00000004      -0.00000169
O        9.47108673      -0.00000005       5.83434879      -0.00000009      -0.00000092      -0.00000186
Sr       7.57686923      -0.00000062       7.77913069       0.00000119       0.00000062       0.00000990
Ti       9.47108672       1.94478253       9.72391463       0.00000023       0.00000044      -0.00000057
O        9.47108676       1.94478246       7.77913180      -0.00000003       0.00000019      -0.00000982
O        7.57686938       1.94478252       9.72391463      -0.00000012      -0.00000008       0.00000011
O        9.47108671      -0.00000003       9.72391463       0.00000009      -0.00000000       0.00000015
Sr       7.57686928       0.00000043      11.66869853       0.00000067      -0.00000203      -0.00000858
Ti       9.47108671       1.94478261      13.61348045       0.00000026       0.00000196      -0.00000491
O        9.47108675       1.94478266      11.66869746       0.00000003      -0.00000073       0.00001033
O        7.57686938       1.94478264      13.61348049       0.00000014      -0.00000054       0.00000158
O        9.47108671       0.00000005      13.61348051       0.00000022       0.00000047       0.00000170
Sr       7.57686920       0.00000043      15.55826382       0.00000045      -0.00000218      -0.00000320
Ti       9.47108674       1.94478259      17.50304634      -0.00000033       0.00000122      -0.00000173
O        9.47108678       1.94478263      15.55826335      -0.00000012      -0.00000039       0.00000498
O        7.57686939       1.94478260      17.50304635       0.00000030      -0.00000042       0.00000024
O        9.47108674       0.00000003      17.50304634       0.00000009       0.00000018       0.00000060
Sr       7.57686956       3.88956510       0.00000006      -0.00000126       0.00000090      -0.00000044
Ti       9.47108672       5.83434765       1.94478294      -0.00000040       0.00000166       0.00000190
O        9.47108676       5.83434768      -0.00000001       0.00000027      -0.00000075      -0.00000004
O        7.57686938       5.83434766       1.94478293       0.00000044      -0.00000062      -0.00000041
O        9.47108676       3.88956512       1.94478295       0.00000003      -0.00000191      -0.00000071
Sr       7.57686933       3.88956476       3.88956552       0.00000149       0.00000217       0.00000325
Ti       9.47108674       5.83434764       5.83434881      -0.00000189       0.00000033       0.00000505
O        9.47108673       5.83434760       3.88956592       0.00000033      -0.00000035      -0.00000472