625
Lattice="17.54193065 0.0 -0.0 0.0 19.44782553 -0.0 -0.0 -0.0 19.44782929" Properties=species:S:1:pos:R:3:forces:R:3 energy=-14582219.1590019 free_energy=-14582219.1590019 stress="-0.35424494 -0.0 -0.0 -0.0 -0.06983445 -0.0 -0.0 -0.0 -0.06983414" pbc="T T T"
Sr       0.00000003       0.00000000       0.00000003      -0.00000038      -0.00000031      -0.00000029
Ti       1.75419307       1.94478253       1.94478294       0.00000004       0.00000071       0.00000238
O        1.75419307       1.94478256      -0.00000001      -0.00000010      -0.00000047       0.00000007
O        0.00000001       1.94478253       1.94478294      -0.00000080      -0.00000015      -0.00000063
O        1.75419307      -0.00000003       1.94478294       0.00000001      -0.00000046      -0.00000094
Sr       0.00000000      -0.00000029       3.88956548      -0.00000017       0.00000139       0.00000441
Ti       1.75419306       1.94478249       5.83434883       0.00000023      -0.00000028       0.00000503
O        1.75419306       1.94478250       3.88956593      -0.00000004      -0.00000053      -0.00000540
O       -0.00000001       1.94478246       5.83434879      -0.00000020       0.00000002      -0.00000173
O        1.75419306      -0.00000007       5.83434878       0.00000011      -0.00000111      -0.00000299
Sr      -0.00000002      -0.00000049       7.77913079      -0.00000027       0.00000206       0.00001136
Ti       1.75419305       1.94478251       9.72391462       0.00000044       0.00000105       0.00000035
O        1.75419306       1.94478243       7.77913181      -0.00000011      -0.00000026      -0.00001062
O       -0.00000002       1.94478254       9.72391464      -0.00000071      -0.00000023       0.00000013
O        1.75419305      -0.00000005       9.72391466      -0.00000015      -0.00000016      -0.00000014
Sr      -0.00000022       0.00000047      11.66869849       0.00000186      -0.00000299      -0.00001228
Ti       1.75419306       1.94478257      13.61348047       0.00000099       0.00000167      -0.00000619
O        1.75419306       1.94478265      11.66869746      -0.00000043      -0.00000063       0.00001099
O       -0.00000001       1.94478263      13.61348050      -0.00000080      -0.00000019       0.00000166
O        1.75419305       0.00000002      13.61348046      -0.00000019       0.00000044       0.00000337
Sr      -0.00000001       0.00000028      15.55826379       0.00000019      -0.00000172      -0.00000390
Ti       1.75419308       1.94478256      17.50304633       0.00000036       0.00000157      -0.00000130
O        1.75419305       1.94478263      15.55826335      -0.00000010      -0.00000062       0.00000527
O        0.00000001       1.94478257      17.50304634      -0.00000048      -0.00000008       0.00000036
O        1.75419306       0.00000001      17.50304636       0.00000003      -0.00000007       0.00000071
Sr       0.00000002       3.88956497       0.00000001      -0.00000034       0.00000128      -0.00000014
Ti       1.75419306       5.83434765       1.94478293       0.00000222       0.00000104       0.00000143
O        1.75419308       5.83434764      -0.00000001      -0.00000036      -0.00000087       0.00000025
O        0.00000001       5.83434762       1.94478292      -0.00000121      -0.00000046      -0.00000021
O        1.75419307       3.88956511       1.94478294      -0.00000015      -0.00000198      -0.00000084
Sr      -0.00000002       3.88956484       3.88956553       0.00000051       0.00000212       0.00000380
Ti       1.75419306       5.83434762       5.83434882       0.00000208       0.00000054       0.00000488
O        1.75419309       5.83434760       3.88956592      -0.00000052      -0.00000111      -0.00000500
O       -0.00000001       5.83434758       5.83434878      -0.00000050      -0.00000043      -0.00000178
O        1.75419308       3.88956507       5.83434877      -0.00000033      -0.00000202      -0.00000285
Sr      -0.00000004       3.88956463       7.77913078      -0.00000043       0.00000323       0.00001150
Ti       1.75419305       5.83434764       9.72391459       0.00000069       0.00000154       0.00000068
O        1.75419307       5.83434756       7.77913179      -0.00000040      -0.00000102      -0.00001049
O       -0.00000002       5.83434765       9.72391467      -0.00000072      -0.00000047      -0.00000012
O        1.75419306       3.88956509       9.72391469      -0.00000025      -0.00000111      -0.00000055
Sr      -0.00000006       3.88956543      11.66869866       0.00000127      -0.00000112      -0.00001338
Ti       1.75419307       5.83434771      13.61348046      -0.00000038       0.00000215      -0.00000494
O        1.75419304       5.83434772      11.66869745      -0.00000013      -0.00000075       0.00001111
O        0.00000000       5.83434773      13.61348048      -0.00000090      -0.00000064       0.00000155
O        1.75419307       3.88956515      13.61348047      -0.00000031      -0.00000072       0.00000327
Sr       0.00000003       3.88956514      15.55826381      -0.00000019       0.00000038      -0.00000463
Ti       1.75419307       5.83434769      17.50304633       0.00000110       0.00000185      -0.00000159
O        1.75419305       5.83434771      15.55826335      -0.00000021      -0.00000095       0.00000501
O        0.00000001       5.83434770      17.50304632      -0.00000101      -0.00000069       0.00000060
O        1.75419308       3.88956514      17.50304635      -0.00000038      -0.00000164       0.00000085
Sr       0.00000001       7.77912987       0.00000005      -0.00000018       0.00000451      -0.00000048
Ti       1.75419307       9.72391274       1.94478294      -0.00000074      -0.00000043       0.00000207
O        1.75419306       9.72391278      -0.00000001      -0.00000005       0.00000026       0.00000007
O        0.00000000       9.72391274       1.94478294      -0.00000020       0.00000002      -0.00000064
O        1.75419307       7.77913023       1.94478295      -0.00000021      -0.00000396      -0.00000094
Sr      -0.00000001       7.77912946       3.88956548      -0.00000008       0.00000746       0.00000420
Ti       1.75419308       9.72391271       5.83434882      -0.00000081      -0.00000015       0.00000458
O        1.75419305       9.72391272       3.88956592       0.00000032       0.00000001      -0.00000511
O        0.00000000       9.72391268       5.83434878       0.00000007       0.00000007      -0.00000151
O        1.75419306       7.77913020       5.83434877      -0.00000010      -0.00000450      -0.00000294
Sr      -0.00000013       7.77912941       7.77913066       0.00000106       0.00000728       0.00001259
Ti       1.75419305       9.72391273       9.72391463       0.00000063      -0.00000019      -0.00000025
O        1.75419306       9.72391269       7.77913181       0.00000005       0.00000007      -0.00001063
O       -0.00000001       9.72391275       9.72391462      -0.00000041       0.00000012       0.00000019
O        1.75419306       7.77913022       9.72391466      -0.00000033      -0.00000331      -0.00000022
Sr      -0.00000009       7.77913036      11.66869847       0.00000112       0.00000117      -0.00001051
Ti       1.75419306       9.72391278      13.61348046       0.00000085       0.00000093      -0.00000473
O        1.75419308       9.72391286      11.66869746      -0.00000033       0.00000009       0.00001109
O       -0.00000001       9.72391285      13.61348049      -0.00000027      -0.00000000       0.00000159
O        1.75419305       7.77913027      13.61348050      -0.00000027      -0.00000233       0.00000294
Sr      -0.00000005       7.77913023      15.55826378       0.00000040       0.00000201      -0.00000383
Ti       1.75419306       9.72391279      17.50304633       0.00000099      -0.00000002      -0.00000159
O        1.75419307       9.72391283      15.55826336      -0.00000030       0.00000037       0.00000475
O        0.00000000       9.72391280      17.50304636      -0.00000070       0.00000008       0.00000029
O        1.75419305       7.77913026      17.50304634      -0.00000016      -0.00000300       0.00000093
Sr      -0.00000001      11.66869577      -0.00000003      -0.00000065      -0.00000522       0.00000023
Ti       1.75419307      13.61347785       1.94478294      -0.00000108      -0.00000273       0.00000180
O        1.75419306      13.61347788       0.00000000       0.00000016       0.00000125      -0.00000017
O        0.00000000      13.61347784       1.94478294       0.00000131       0.00000064      -0.00000043
O        1.75419307      11.66869526       1.94478294       0.00000021       0.00000463      -0.00000102
Sr       0.00000004      11.66869545       3.88956547      -0.00000072      -0.00000259       0.00000410
Ti       1.75419306      13.61347781       5.83434884      -0.00000091      -0.00000397       0.00000460
O        1.75419308      13.61347779       3.88956593       0.00000021       0.00000123      -0.00000532
O        0.00000000      13.61347779       5.83434880       0.00000113       0.00000075      -0.00000175
O        1.75419308      11.66869523       5.83434878       0.00000013       0.00000398      -0.00000300
Sr       0.00000003      11.66869530       7.77913081      -0.00000129      -0.00000281       0.00001151
Ti       1.75419306      13.61347784       9.72391465      -0.00000154      -0.00000222       0.00000047
O        1.75419306      13.61347774       7.77913182       0.00000030       0.00000141      -0.00001065
O       -0.00000002      13.61347785       9.72391464       0.00000104       0.00000061      -0.00000004
O        1.75419306      11.66869526       9.72391465       0.00000014       0.00000471       0.00000004
Sr      -0.00000003      11.66869612      11.66869861       0.00000035      -0.00000746      -0.00001145
Ti       1.75419306      13.61347789      13.61348047      -0.00000067      -0.00000165      -0.00000552
O        1.75419304      13.61347793      11.66869748       0.00000020       0.00000122       0.00001071
O       -0.00000001      13.61347795      13.61348049       0.00000065       0.00000050       0.00000169
O        1.75419306      11.66869530      13.61348047      -0.00000001       0.00000568       0.00000325
Sr      -0.00000007      11.66869599      15.55826379       0.00000053      -0.00000647      -0.00000390
Ti       1.75419307      13.61347789      17.50304634      -0.00000091      -0.00000204      -0.00000143
O        1.75419305      13.61347792      15.55826337       0.00000015       0.00000136       0.00000471
O        0.00000000      13.61347791      17.50304634       0.00000102       0.00000052       0.00000044
O        1.75419307      11.66869530      17.50304633      -0.00000005       0.00000527       0.00000093
Sr       0.00000002      15.55826058      -0.00000002      -0.00000112      -0.00000149       0.00000037
Ti       1.75419308      17.50304294       1.94478295      -0.00000048      -0.00000001       0.00000195
O        1.75419307      17.50304299       0.00000000       0.00000002       0.00000001      -0.00000018
O        0.00000001      17.50304293       1.94478294       0.00000054       0.00000021      -0.00000060
O        1.75419305      15.55826038       1.94478294       0.00000026       0.00000120      -0.00000093
Sr       0.00000004      15.55826018       3.88956547      -0.00000122       0.00000085       0.00000418
Ti       1.75419307      17.50304290       5.83434882      -0.00000079      -0.00000033       0.00000475
O        1.75419306      17.50304292       3.88956593       0.00000023      -0.00000022      -0.00000527
O        0.00000000      17.50304287       5.83434880       0.00000069       0.00000017      -0.00000153
O        1.75419306      15.55826034       5.83434878       0.00000026       0.00000068      -0.00000299
Sr       0.00000004      15.55826013       7.77913075      -0.00000148       0.00000119       0.00001180
Ti       1.75419305      17.50304292       9.72391464      -0.00000051       0.00000017       0.00000063
O        1.75419306      17.50304287       7.77913182       0.00000012      -0.00000013      -0.00001078
O       -0.00000003      17.50304294       9.72391464       0.00000078       0.00000017      -0.00000007
O        1.75419304      15.55826037       9.72391466       0.00000013       0.00000134      -0.00000012
Sr      -0.00000011      15.55826094      11.66869848       0.00000017      -0.00000330      -0.00001159
Ti       1.75419305      17.50304299      13.61348047      -0.00000064       0.00000125      -0.00000601
O        1.75419303      17.50304306      11.66869747       0.00000005      -0.00000014       0.00001079
O       -0.00000002      17.50304305      13.61348048       0.00000081      -0.00000002       0.00000166
O        1.75419304      15.55826043      13.61348048       0.00000009       0.00000205       0.00000318
Sr       0.00000006      15.55826079      15.55826373      -0.00000150      -0.00000231      -0.00000382
Ti       1.75419307      17.50304297      17.50304634      -0.00000025       0.00000062      -0.00000130
O        1.75419306      17.50304302      15.55826336      -0.00000006       0.00000017       0.00000506
O        0.00000000      17.50304301      17.50304634       0.00000092       0.00000010       0.00000053
O        1.75419305      15.55826042      17.50304635       0.00000015       0.00000178       0.00000079
Sr       3.50838610       0.00000004       0.00000000       0.00000045      -0.00000083      -0.00000002
Ti       5.26257919       1.94478254       1.94478294       0.00000095       0.00000087       0.00000101
O        5.26257923       1.94478257      -0.00000001      -0.00000033      -0.00000057       0.00000021
O        3.50838612       1.94478253       1.94478294       0.00000019      -0.00000021      -0.00000057
O        5.26257920      -0.00000001       1.94478293      -0.00000017      -0.00000095      -0.00000078
Sr       3.50838615      -0.00000030       3.88956550      -0.00000041       0.00000123       0.00000393
Ti       5.26257920       1.94478249       5.83434881       0.00000018       0.00000035       0.00000557
O        5.26257919       1.94478248       3.88956592      -0.00000007      -0.00000045      -0.00000512
O        3.50838612       1.94478247       5.83434879       0.00000018      -0.00000014      -0.00000177
O        5.26257919      -0.00000007       5.83434880      -0.00000016      -0.00000137      -0.00000320
Sr       3.50838615      -0.00000056       7.77913080      -0.00000039       0.00000240       0.00001198
Ti       5.26257919       1.94478252       9.72391464      -0.00000046       0.00000088       0.00000029
O        5.26257919       1.94478245       7.77913180      -0.00000012      -0.00000066      -0.00001050
O        3.50838611       1.94478253       9.72391465       0.00000061      -0.00000026      -0.00000010
O        5.26257918      -0.00000005       9.72391463      -0.00000021      -0.00000032      -0.00000003
Sr       3.50838600       0.00000026      11.66869849       0.00000060      -0.00000126      -0.00001238
Ti       5.26257918       1.94478260      13.61348044      -0.00000050       0.00000258      -0.00000520
O        5.26257918       1.94478263      11.66869746       0.00000004      -0.00000051       0.00001057
O        3.50838611       1.94478263      13.61348047       0.00000020      -0.00000028       0.00000180
O        5.26257916       0.00000004      13.61348051      -0.00000008       0.00000001       0.00000286
Sr       3.50838595       0.00000010      15.55826379       0.00000169      -0.00000079      -0.00000407
Ti       5.26257919       1.94478257      17.50304633       0.00000059       0.00000222      -0.00000172
O        5.26257918       1.94478262      15.55826334      -0.00000013      -0.00000051       0.00000533
O        3.50838612       1.94478260      17.50304633      -0.00000015      -0.00000037       0.00000056
O        5.26257919       0.00000002      17.50304633      -0.00000020      -0.00000018       0.00000101
Sr       3.50838615       3.88956497       0.00000002       0.00000043       0.00000149      -0.00000063
Ti       5.26257918       5.83434764       1.94478294       0.00000027       0.00000201       0.00000051
O        5.26257921       5.83434770      -0.00000002      -0.00000009      -0.00000126       0.00000058
O        3.50838612       5.83434765       1.94478294      -0.00000057      -0.00000053      -0.00000044
O        5.26257920       3.88956511       1.94478292      -0.00000007      -0.00000211      -0.00000062
Sr       3.50838613       3.88956473       3.88956554      -0.00000039       0.00000280       0.00000436
Ti       5.26257919       5.83434761       5.83434881       0.00000080       0.00000127       0.00000594
O        5.26257920       5.83434763       3.88956591      -0.00000014      -0.00000130      -0.00000478
O        3.50838612       5.83434759       5.83434878      -0.00000065      -0.00000043      -0.00000174
O        5.26257920       3.88956507       5.83434882      -0.00000014      -0.00000249      -0.00000334
Sr       3.50838618       3.88956458       7.77913079      -0.00000048       0.00000387       0.00001113
Ti       5.26257917       5.83434761       9.72391463       0.00000143       0.00000310      -0.00000003
O        5.26257920       5.83434759       7.77913180      -0.00000021      -0.00000117      -0.00001052
O        3.50838611       5.83434767       9.72391465      -0.00000069      -0.00000064       0.00000020
O        5.26257920       3.88956508       9.72391462      -0.00000011      -0.00000133       0.00000007
Sr       3.50838608       3.88956546      11.66869850       0.00000032      -0.00000153      -0.00001148
Ti       5.26257918       5.83434768      13.61348044       0.00000181       0.00000255      -0.00000415
O        5.26257924       5.83434779      11.66869746      -0.00000046      -0.00000139       0.00001079
O        3.50838611       5.83434773      13.61348050      -0.00000034      -0.00000049       0.00000146
O        5.26257922       3.88956516      13.61348050      -0.00000020      -0.00000108       0.00000274
Sr       3.50838610       3.88956522      15.55826376       0.00000092      -0.00000008      -0.00000445
Ti       5.26257920       5.83434767      17.50304633       0.00000057       0.00000253      -0.00000194
O        5.26257922       5.83434774      15.55826334      -0.00000015      -0.00000113       0.00000519
O        3.50838613       5.83434770      17.50304634      -0.00000094      -0.00000052       0.00000038
O        5.26257922       3.88956514      17.50304633      -0.00000011      -0.00000167       0.00000101
Sr       3.50838601       7.77913002       0.00000002       0.00000142       0.00000324      -0.00000044
Ti       5.26257919       9.72391276       1.94478295      -0.00000027      -0.00000337       0.00000040
O        5.26257915       9.72391273       0.00000000       0.00000013       0.00000100       0.00000025
O        3.50838612       9.72391275       1.94478292       0.00000039       0.00000028      -0.00000031
O        5.26257920       7.77913023       1.94478292      -0.00000013      -0.00000303      -0.00000058
Sr       3.50838615       7.77912974       3.88956554      -0.00000006       0.00000441       0.00000426
Ti       5.26257920       9.72391272       5.83434880       0.00000062      -0.00000314       0.00000576
O        5.26257919       9.72391267       3.88956592      -0.00000022       0.00000082      -0.00000501
O        3.50838613       9.72391272       5.83434880       0.00000045       0.00000017      -0.00000169
O        5.26257921       7.77913020       5.83434882      -0.00000020      -0.00000346      -0.00000335
Sr       3.50838605       7.77912964       7.77913076       0.00000081       0.00000517       0.00001185
Ti       5.26257919       9.72391275       9.72391464      -0.00000109      -0.00000307       0.00000018
O        5.26257919       9.72391264       7.77913181      -0.00000010       0.00000101      -0.00001056
O        3.50838612       9.72391275       9.72391465      -0.00000008       0.00000040      -0.00000005
O        5.26257920       7.77913021       9.72391465      -0.00000015      -0.00000229      -0.00000001
Sr       3.50838604       7.77913025      11.66869868       0.00000122       0.00000221      -0.00001456
Ti       5.26257919       9.72391279      13.61348046      -0.00000071      -0.00000139      -0.00000352
O        5.26257917       9.72391281      11.66869747       0.00000010       0.00000077       0.00001086
O        3.50838612       9.72391284      13.61348050      -0.00000037       0.00000015       0.00000152
O        5.26257922       7.77913026      13.61348053      -0.00000020      -0.00000169       0.00000273
Sr       3.50838602       7.77913012      15.55826381       0.00000171       0.00000245      -0.00000447
Ti       5.26257920       9.72391279      17.50304634      -0.00000095      -0.00000249      -0.00000241
O        5.26257918       9.72391278      15.55826336      -0.00000003       0.00000101       0.00000483
O        3.50838613       9.72391282      17.50304634      -0.00000080       0.00000016       0.00000055
O        5.26257921       7.77913026      17.50304634      -0.00000005      -0.00000250       0.00000098
Sr       3.50838604      11.66869591       0.00000000       0.00000026      -0.00000687      -0.00000009
Ti       5.26257919      13.61347783       1.94478295       0.00000107      -0.00000049      -0.00000020
O        5.26257917      13.61347791       0.00000000      -0.00000033       0.00000078       0.00000011
O        3.50838613      13.61347786       1.94478294      -0.00000015       0.00000055      -0.00000043
O        5.26257915      11.66869527       1.94478291      -0.00000016       0.00000443      -0.00000055
Sr       3.50838627      11.66869557       3.88956542      -0.00000255      -0.00000414       0.00000482
Ti       5.26257919      13.61347779       5.83434882       0.00000018      -0.00000245       0.00000514
O        5.26257914      13.61347784       3.88956593      -0.00000015       0.00000074      -0.00000497
O        3.50838612      13.61347780       5.83434879       0.00000072       0.00000078      -0.00000158
O        5.26257917      11.66869523       5.83434881      -0.00000019       0.00000444      -0.00000323
Sr       3.50838628      11.66869547       7.77913079      -0.00000181      -0.00000451       0.00001121
Ti       5.26257917      13.61347781       9.72391467       0.00000126      -0.00000035       0.00000132
O        5.26257916      13.61347780       7.77913182      -0.00000025       0.00000084      -0.00001083
O        3.50838611      13.61347787       9.72391464       0.00000019       0.00000052      -0.00000018
O        5.26257916      11.66869525       9.72391465      -0.00000006       0.00000521       0.00000004
Sr       3.50838612      11.66869609      11.66869848      -0.00000051      -0.00000706      -0.00001138
Ti       5.26257918      13.61347788      13.61348047       0.00000050      -0.00000032      -0.00000491
O        5.26257917      13.61347798      11.66869749      -0.00000024       0.00000070       0.00001048
O        3.50838612      13.61347795      13.61348049      -0.00000050       0.00000057       0.00000174
O        5.26257917      11.66869530      13.61348050      -0.00000017       0.00000591       0.00000293
Sr       3.50838609      11.66869612      15.55826378       0.00000003      -0.00000796      -0.00000396
Ti       5.26257919      13.61347786      17.50304635       0.00000104      -0.00000027      -0.00000147
O        5.26257917      13.61347798      15.55826337      -0.00000031       0.00000081       0.00000478
O        3.50838613      13.61347792      17.50304635      -0.00000068       0.00000059       0.00000040
O        5.26257915      11.66869529      17.50304633      -0.00000006       0.00000557       0.00000099
Sr       3.50838601      15.55826064      -0.00000003       0.00000084      -0.00000189      -0.00000022
Ti       5.26257920      17.50304296       1.94478295       0.00000104      -0.00000014       0.00000062
O        5.26257919      17.50304297       0.00000000      -0.00000023       0.00000019       0.00000008
O        3.50838613      17.50304295       1.94478293      -0.00000013       0.00000001      -0.00000048
O        5.26257916      15.55826038       1.94478292      -0.00000028       0.00000103      -0.00000060
Sr       3.50838603      15.55826025       3.88956549       0.00000012       0.00000055       0.00000447
Ti       5.26257919      17.50304291       5.83434880       0.00000007      -0.00000001       0.00000458
O        5.26257917      17.50304290       3.88956592      -0.00000024      -0.00000009      -0.00000488
O        3.50838613      17.50304288       5.83434881      -0.00000021       0.00000005      -0.00000162
O        5.26257914      15.55826034       5.83434881      -0.00000014       0.00000038      -0.00000331
Sr       3.50838607      15.55826001       7.77913073      -0.00000039       0.00000223       0.00001185
Ti       5.26257917      17.50304293       9.72391466       0.00000102      -0.00000026       0.00000078
O        5.26257916      17.50304284       7.77913181      -0.00000023      -0.00000005      -0.00001091
O        3.50838611      17.50304293       9.72391464      -0.00000047       0.00000011      -0.00000010
O        5.26257915      15.55826036       9.72391466      -0.00000031       0.00000128      -0.00000013
Sr       3.50838601      15.55826086      11.66869860       0.00000058      -0.00000329      -0.00001220
Ti       5.26257919      17.50304302      13.61348047       0.00000014       0.00000137      -0.00000455
O        5.26257917      17.50304302      11.66869747      -0.00000021       0.00000016       0.00001096
O        3.50838612      17.50304304      13.61348050      -0.00000072      -0.00000012       0.00000159
O        5.26257916      15.55826043      13.61348052      -0.00000015       0.00000216       0.00000297
Sr       3.50838600      15.55826074      15.55826377       0.00000115      -0.00000237      -0.00000385
Ti       5.26257921      17.50304299      17.50304635       0.00000040       0.00000037      -0.00000162
O        5.26257916      17.50304303      15.55826337      -0.00000010       0.00000020       0.00000479
O        3.50838614      17.50304301      17.50304634      -0.00000115       0.00000003       0.00000048
O        5.26257918      15.55826041      17.50304633      -0.00000033       0.00000180       0.00000098
Sr       7.01677227       0.00000000       0.00000000       0.00000007       0.00000029      -0.00000001
Ti       8.77096534       1.94478255       1.94478294      -0.00000050       0.00000049       0.00000193
O        8.77096535       1.94478256       0.00000000       0.00000038      -0.00000020      -0.00000023
O        7.01677227       1.94478253       1.94478293      -0.00000060      -0.00000015      -0.00000042
O        8.77096534      -0.00000001       1.94478294       0.00000010      -0.00000035      -0.00000096
Sr       7.01677222      -0.00000023       3.88956546       0.00000072       0.00000092       0.00000447
Ti       8.77096533       1.94478252       5.83434881       0.00000013       0.00000029       0.00000557
O        8.77096533       1.94478249       3.88956592       0.00000029      -0.00000031      -0.00000520
O        7.01677227       1.94478247       5.83434879      -0.00000055      -0.00000017      -0.00000176
O        8.77096533      -0.00000005       5.83434879      -0.00000010      -0.00000099      -0.00000308
Sr       7.01677212      -0.00000062       7.77913069       0.00000121       0.00000160       0.00001230
Ti       8.77096532       1.94478253       9.72391463       0.00000028       0.00000037      -0.00000068
O        8.77096536       1.94478246       7.77913180      -0.00000000      -0.00000028      -0.00001032
O        7.01677226       1.94478252       9.72391463      -0.00000010      -0.00000007       0.00000010
O        8.77096531      -0.00000003       9.72391463       0.00000007       0.00000001       0.00000016
Sr       7.01677217       0.00000043      11.66869853       0.00000069      -0.00000252      -0.00001075
Ti       8.77096531       1.94478261      13.61348045       0.00000022       0.00000208      -0.00000503
O        8.77096535       1.94478266      11.66869746       0.00000022      -0.00000040       0.00001085
O        7.01677226       1.94478264      13.61348049      -0.00000002      -0.00000041       0.00000176
O        8.77096531       0.00000005      13.61348051       0.00000017       0.00000053       0.00000293
Sr       7.01677209       0.00000043      15.55826382       0.00000112      -0.00000249      -0.00000417
Ti       8.77096534       1.94478259      17.50304634      -0.00000084       0.00000132      -0.00000155
O        8.77096538       1.94478263      15.55826335       0.00000009      -0.00000025       0.00000525
O        7.01677227       1.94478260      17.50304635       0.00000035      -0.00000034       0.00000026
O        8.77096534       0.00000003      17.50304634       0.00000010       0.00000019       0.00000092
Sr       7.01677243       3.88956510       0.00000006      -0.00000064       0.00000098      -0.00000062
Ti       8.77096532       5.83434765       1.94478294      -0.00000051       0.00000162       0.00000190
O        8.77096536       5.83434768      -0.00000001       0.00000046      -0.00000114      -0.00000003
O        7.01677226       5.83434766       1.94478293       0.00000046      -0.00000057      -0.00000046
O        8.77096536       3.88956512       1.94478295       0.00000021      -0.00000203      -0.00000097
Sr       7.01677221       3.88956476       3.88956552       0.00000153       0.00000281       0.00000430
Ti       8.77096534       5.83434764       5.83434881      -0.00000252       0.00000037       0.00000510
O        8.77096533       5.83434760       3.88956592       0.00000042      -0.00000106      -0.00000498