625
Lattice="19.525 0.0 0.0 0.0 19.525 0.0 0.0 0.0 19.525" Properties=species:S:1:pos:R:3:forces:R:3 energy=-14582285.225705 free_energy=-14582285.225705 stress="-0.00270355 -0.00044736 -0.00011127 -0.00044736 -0.00546024 0.00023885 -0.00011127 0.00023885 -0.00408323" pbc="T T T"
Sr       0.04082280       0.14750655       0.14670911      -0.11300923      -0.78007979      -0.16839456
Ti       1.95727885       1.95912235       2.04944654      -1.06994425       0.96792889       0.31687598
O        2.11499774       1.85915201       0.09836965      -1.56587053       0.18834473      -1.06751675
O        0.00675056       1.77965811       2.08578152      -0.21311944       0.05089668       0.08894569
O        1.97607373      -0.13856273       2.13723432       0.28931136       2.76535225       0.03970874
Sr      -0.19659188      -0.00308585       3.89069943       0.68896210      -0.31561051      -0.30834832
Ti       1.97495253       1.86457430       5.92745780       0.70339848       1.45497221      -1.27286476
O        2.09155241       2.04515449       3.99039290      -0.63310046      -0.45834944      -0.72593067
O       -0.05458710       2.02699938       5.63078475       0.33194433      -0.93006828       0.35575482
O        1.84512530      -0.11251642       5.59758415      -0.71040844       1.72815614       0.55905072
Sr      -0.01579526      -0.01826729       7.63722270      -0.43723885      -0.93064686       0.73530495
Ti       1.89751641       1.92484494       9.69526973       1.44108732      -1.06405297       0.21979221
O        1.66865054       1.68374928       7.73836771       0.32744708       0.42551179       0.25482106
O       -0.00642349       1.92694431       9.85986586      -0.11376608      -0.09763017      -0.23937732
O        2.05675282      -0.08511435       9.74030199      -0.72413363       0.63407813       0.30251947
Sr      -0.07015272       0.01820885      11.53426508       0.07469445      -0.52680061       0.69278386
Ti       2.02273309       1.95651129      13.61189246      -1.30315386      -0.45494287       0.46367357
O        2.04894973       2.03598904      11.59949397      -0.18421247      -0.37025127       0.63824386
O       -0.02033778       1.84548839      13.70125726      -0.05942012       0.05269166      -0.78604536
O        2.07044516      -0.06626775      13.64128416      -0.48078533       0.61859473      -0.56200136
Sr      -0.03463318      -0.13193345      15.75172342       0.30695886       0.26870886      -0.56661240
Ti       1.81918274       2.02634941      17.55001559       0.58490833      -1.04609593      -0.45372575
O        1.85505282       1.87106844      15.56890422       0.65891553       0.26022899       1.54492345
O       -0.09108669       2.07382549      17.54821414       0.54713386      -0.29796254       0.38550172
O        1.75942465      -0.05617615      17.63065368       0.36837839       2.53159347      -0.15361982
Sr      -0.12353148       3.99450716       0.16161776       0.58017164      -0.17569526       0.11266935
Ti       2.04881822       5.85931589       2.03858556      -1.24142072      -0.76715499       0.58226152
O        2.00849879       5.78576635      -0.04359335      -0.45451368       0.26071019       0.45035918
O       -0.03002178       5.84616565       2.08880359       0.36175359       0.37071717      -0.73238331
O        1.85167379       3.89474495       1.95819390      -0.37056460      -0.54256969       0.19987855
Sr      -0.01529378       3.96990575       4.07283264       0.50445616       0.13340148      -0.99401330
Ti       1.98657242       5.95545926       5.96168069       1.00245860      -0.17808301      -1.53650743
O        2.05304731       5.95121799       3.98881400      -0.69717546      -0.76957369      -1.64587478
O       -0.01559761       5.93886159       5.89816262       0.12964601      -0.91663983      -0.04206014
O        2.05735321       3.89614280       5.99445203      -0.52390607      -0.47831597       0.04742181
Sr       0.02166370       3.74042559       7.71889197       0.06632838       0.36891778       0.16068423
Ti       1.82203682       5.88381358       9.75212634       0.61851202      -1.41817382       0.16084328
O        1.79834377       5.95175035       7.75143115       0.70872161       0.01479711       1.80625996
O       -0.23961270       5.58575344       9.44152889       2.87755169       1.23109852       0.56835189
O        1.84584691       3.87881614       9.51375144       0.32618183      -0.30570651       0.16933579
Sr       0.10130956       3.67614550      11.61760764      -0.59100042       1.25803597       0.72348279
Ti       2.01730828       5.85629225      13.69045724      -0.93904784       0.01706218      -0.58240499
O        1.74932143       5.73904353      11.67107075      -0.08278871       0.61214867      -1.33196529
O       -0.01758488       5.71881048      13.64881703      -0.30776693       0.96862648       0.07871585
O        1.85075853       3.80491012      13.68181365       0.66488261       0.51875949       0.31900605
Sr      -0.09052644       4.02996256      15.49147770       0.19903454      -0.30174574       0.37015556
Ti       1.97034901       5.85905382      17.58460006      -0.43582875       1.35579599       0.75347863
O        1.83816631       6.07117958      15.57866287       0.52328760      -1.29481542      -0.04009518
O       -0.09521677       5.83996792      17.66874112       0.45432231       0.00325513      -0.06590759
O        1.83675508       3.96520889      17.59294234       0.47319930      -1.70969261      -0.50901216
Sr       0.03117969       7.68317167       0.06345776      -0.11156497       0.17675808      -0.37578756
Ti       1.83644943       9.67266930       1.83359762      -0.42380708       2.39674178       0.58048673
O        2.02222782       9.69817834      -0.02825781      -0.19225603       0.01456582       0.55384231
O       -0.05857961       9.61095028       1.94800942       1.82505685      -0.34629322       0.29761815
O        2.02850325       7.78361824       1.92587519      -0.09696115      -0.19225471       0.03231448
Sr      -0.20407638       7.68143861       3.98951325       0.61176362       0.72390985      -0.36042199
Ti       1.77276374       9.86173902       5.84221965       1.17455509      -0.58532863      -0.36102289
O        1.82130397       9.97164108       3.96401116       0.68717741      -1.12839737      -1.25182834
O       -0.06255890       9.76554940       5.72245218      -1.73143451      -0.31105552       0.07894315
O        1.81960051       7.81859315       5.82022307      -0.05658141       0.68900198       0.34397390
Sr       0.14013650       7.88379433       7.79560700      -1.50585214      -0.17032051      -0.39755595
Ti       1.80845775       9.77358511       9.68252568      -0.14146890       1.08453197      -0.12406589
O        1.52451454       9.83290602       7.80288318       1.30519217      -0.68109503       0.95326327
O       -0.11946761      10.06301563       9.81922640       1.44717085      -1.39069464       0.26104918
O        1.74627595       7.78922284       9.71373460      -0.22899090      -0.36771125       0.41098558
Sr      -0.11662227       7.76898407      11.71382212      -0.40204166      -0.28390563      -0.01117653
Ti       1.80730332       9.70702059      13.60171913       0.24675118       0.76631241       0.17343135
O        1.95797039       9.69408401      11.70413329       0.66603314       0.18327913      -1.19674331
O       -0.00281903       9.66797233      13.30647164      -0.92266618      -0.47066719       1.32698256
O        2.09066174       7.82810022      13.63862350      -0.32352905      -1.64708555      -0.46079843
Sr       0.03168102       7.75543629      15.69132176      -0.18202942       0.06927858      -0.08158423
Ti       1.99648478       9.75392485      17.55142653       0.04934356       0.03563765       0.08507155
O        1.86766139       9.59240213      15.69733908      -0.64059969       0.37481585      -1.51596508
O       -0.02552969       9.73215978      17.67791237       1.45452743       0.30983996      -0.80174995
O        1.96192047       7.78374900      17.64728385      -0.47751043      -0.09949533       0.10701691
Sr      -0.01842862      11.83850127      -0.05268413       0.02141562       0.27762733       0.12228760
Ti       2.04673592      13.63021092       1.90529956      -1.33905946      -0.42265911      -0.65683305
O        2.08640228      13.64829736      -0.06943184       0.27865613      -0.22299565       0.30965377
O       -0.00294135      13.73216426       1.80628748      -0.94436978      -0.30511027       0.44233285
O        1.80513237      11.62440264       1.82121788      -0.04079354      -0.52661271      -0.23854753
Sr      -0.07933918      11.66713132       3.83507890       0.33893619       0.34741791      -0.32233835
Ti       1.92833050      13.64996462       5.81353431      -0.51136367      -0.54150202       0.72969228
O        1.90281918      13.48276926       3.78813614      -0.45380125       0.20414559       1.95494339
O       -0.02040293      13.66213771       5.83787416      -0.38656476       0.46405267      -0.50622675
O        1.72146902      11.62320817       5.95198645       0.57672673       1.89572570      -0.14654591
Sr      -0.09067340      11.72705456       7.86489890      -0.06372461       0.60134402      -0.08791907
Ti       1.98735592      13.59001933       9.84580198      -0.35826232      -0.48185567      -2.27951149
O        1.85497794      13.67308098       7.73022141       0.16370855       0.16232991       0.39323884
O       -0.06283482      13.51678815       9.78845278       0.91592643       0.19621416       0.35811664
O        2.05365422      11.67879565       9.70432455      -0.02622753      -0.64725777       0.50059887
Sr       0.01535387      11.64775503      11.61532448      -0.76570148       0.38443006       0.63759800
Ti       1.88589334      13.76408467      13.58905595      -0.89395768      -0.90626910       1.03505191
O        2.09953303      13.64197587      11.65783054      -0.32176971      -0.29104678       0.88543704
O       -0.00914910      13.78090166      13.53536442       0.35806480       0.11988814      -0.35069421
O        1.76751262      11.60334711      13.69931459       0.66151666       0.86265058      -0.11120212
Sr       0.00914195      11.63590346      15.54140920      -0.03536730       0.58053351       0.11404049
Ti       2.04886579      13.68685945      17.48454707      -2.69582008       0.09828522       1.09930380
O        1.90743760      13.69076684      15.54023200       0.03001242       0.45212343      -0.41785180
O       -0.03383064      13.84624549      17.73321902       0.63194687      -0.09121689      -0.17321083
O        1.94468647      11.78468910      17.42786563      -0.57115674      -1.34780559       0.27200284
Sr       0.13464640      15.61303681       0.01258120      -0.47611422      -0.20509857      -0.27838076
Ti       2.04184311      17.61403789       1.90712837      -0.52796346      -1.43368411       0.41581207
O        1.92721418      17.65940844      -0.01416364      -0.32469124      -0.12446500       0.92692109
O        0.11333113      17.57896859       1.95253784      -1.48852369      -0.06698932       0.18846559
O        2.02909089      15.50987922       1.89840080       0.20420441       0.81746358      -0.00606808
Sr       0.09155122      15.73011344       3.71948276       0.10065722      -0.73671130       0.10117523
Ti       1.99571611      17.63039775       5.72623774      -1.13300645      -2.72163699      -0.29523916
O        2.20582106      17.36071536       3.86382710      -0.62619048       0.18570424       0.17380155
O       -0.06083518      17.45730590       5.68631943       0.41466449       0.41296607      -0.22448538
O        2.03046574      15.50538331       5.75443962       0.10920214       0.56834047       0.13066474
Sr      -0.01687198      15.47858231       7.83696016       0.08636516      -0.05768913      -0.18238430
Ti       1.85605965      17.40198519       9.75629805      -0.45866130       1.08752431      -0.13954111
O        1.71074188      17.49663625       7.87402895       0.41731364       0.03910065      -1.53651162
O       -0.07207210      17.44798054       9.90859664      -0.10693563       0.36856589      -0.00615784
O        1.84277362      15.44775861       9.79304971       0.28149711       1.51748016      -0.08438942
Sr      -0.05317452      15.67453226      11.72039878      -0.35556454      -0.42016017      -0.12808628
Ti       1.84054227      17.64450170      13.68529263       0.96246823       0.38952310       0.44824175
O        1.85925436      17.53339561      11.68328678       0.57603683      -0.13689139       0.59245027
O       -0.01065051      17.56083948      13.73069393      -0.56309767      -0.43528039      -0.15447401
O        2.01086113      15.65192100      13.63744120       0.01646351      -0.61213407      -0.12985758
Sr       0.10261878      15.68052792      15.54877004      -0.62810417      -0.47618742       0.80015975
Ti       2.02034155      17.58386293      17.67987268      -1.24438401      -0.42517098      -1.12283374
O        2.01948060      17.66794351      15.64574806       0.17157855      -0.47294148      -0.63022008
O        0.03939719      17.47112844      17.51565875      -0.67561046       0.17935036       0.00758121
O        2.15826915      15.70805379      17.64221056      -0.29855985      -0.68893065      -0.59935514
Sr       3.85659321       0.14391397       0.03236527      -0.04411438      -0.61106073       0.00359215
Ti       5.79429185       1.95051398       1.97476784       0.27296429      -0.35925454       0.52867545
O        5.76661461       1.88419522      -0.08363435       0.06958935       0.04964192       0.69976771
O        3.81619044       2.07951845       1.99258385       1.72465463      -0.59750257      -0.02317215
O        5.75177329      -0.08429530       1.89157997       0.34556050       1.10885086      -0.22392066
Sr       3.82803040       0.06237902       3.98484869       0.67454923      -0.44866309      -0.51088962
Ti       5.88354706       1.92067461       5.91810602       0.33276507       0.65601161       0.17214804
O        5.82049652       1.95916620       3.82671776      -0.19037872      -0.35343316       0.26644084
O        3.82218755       1.80109206       5.94957703       0.20259772      -0.02260750       0.23526482
O        5.76203135      -0.00982026       5.80806240       0.41108599      -0.30412144      -0.37412528
Sr       3.82916973      -0.28258072       7.90677430      -0.04193410       1.20255551       0.07475117
Ti       5.95353264       1.88227909       9.73212208      -2.26916526       0.19647370      -0.49445346
O        5.85485246       1.76976311       7.76027240       0.31611633       0.61091922      -0.33765030
O        3.91956786       1.94238600       9.54799805      -1.35408366       0.33625986       0.19853766
O        5.69633170      -0.00368617       9.72722055       0.29386812      -1.10713965       0.63123467
Sr       3.91039302      -0.10468251      11.60545508      -0.73639425       0.62378546       0.06724986
Ti       5.79029124       1.99479171      13.74996657       1.11323419      -1.01173510      -0.71394406
O        5.72753083       1.94315441      11.66508529       0.63827248      -0.47473188       0.07655536
O        3.88293306       1.76568675      13.59994352      -0.03339240       0.35267414       0.24754924
O        5.90895453      -0.13631950      13.76261064      -0.12892604       0.74898313      -0.84109873
Sr       3.92050072       0.04978668      15.74165597      -0.51573597      -0.64999445      -0.70270322
Ti       5.83141378       1.83003795      17.56190055       0.55008117       0.46111574      -0.11766882
O        5.75883123       1.90254291      15.59544291      -0.12278822       0.15045121       0.57464452
O        3.86281034       1.98963552      17.60375386      -0.52766956      -0.20151481      -0.65636518
O        5.93913482      -0.00739828      17.43856212      -0.85244971      -0.73181448       0.48697792
Sr       3.81624180       3.79366102      -0.02254646      -0.00183395       0.38130115       0.37230077
Ti       5.85699028       5.76536367       1.93997351      -0.45802189       0.33452100       0.82274966
O        5.68884275       5.73510132      -0.08532996       0.42684237       0.75368165       0.39944017
O        3.83194758       5.66252704       1.85434327       1.13994026       0.24980616       0.26632505
O        5.89856516       3.86712545       1.73689167       0.08962607      -0.86674412       0.35408634
Sr       3.76485822       3.85385837       4.06986216       0.27908779       0.46142137      -0.32645318
Ti       5.86071602       5.77825928       5.72278536      -1.78422382       0.37139082       0.26342106
O        5.78726686       5.57198771       3.88276794       0.04549135      -0.11505555      -1.81691431
O        3.86521154       6.13160260       5.77397472       0.18197305      -1.03685607       0.74540116
O        5.68978957       3.81538729       5.71549545      -0.03164249      -0.43346287       0.91558960
Sr       3.89578632       3.80322064       7.91557720       0.26531921       0.31360980      -0.43892446
Ti       5.84993118       5.83478990       9.70971957       0.28008119      -0.37522202      -0.00417299
O        5.92234186       5.67755252       7.65375035      -0.24690787       0.62291704       1.30130023
O        3.83721837       5.79800744       9.73356550      -0.58692619       0.19232282      -0.18363714
O        5.87699225       3.83921984       9.65760063      -0.35461697       0.11741191       0.19602112
Sr       4.05521521       3.66944290      11.52702603      -0.79236184       0.94268778       0.20054252
Ti       5.75962568       5.85471648      13.56159785      -0.28256150       1.07199912       1.09105027
O        5.87337171       5.88035546      11.61598146      -0.64771926      -0.33784469       0.70550514
O        3.84783704       5.63997695      13.40703733      -1.08025126       0.07904476      -0.00574096
O        5.68479469       3.82291228      13.74500613       0.69087563       0.49824634      -0.63323694
Sr       3.88697181       3.83407246      15.68471826       0.03451995       0.25865476      -0.29879605
Ti       5.71764737       5.76388446      17.52985133       0.65552171       1.40860429      -1.07035455
O        5.46684638       5.80995892      15.52414563       1.35753993      -0.22182476       0.10443051
O        3.86090237       5.92464320      17.44770765      -0.80266869      -0.77207612       0.51869738
O        5.85194943       3.93673851      17.43917766       0.34309725      -1.17300226       0.22010517
Sr       3.91022829       7.73933603       0.05341526      -0.01641473       0.21512712      -0.49059402
Ti       5.68706519       9.80476514       2.09357061       1.18543416      -2.10204791      -1.89466037
O        5.76283416       9.61370221       0.01498556      -0.53228228       0.35689145       0.76559545
O        3.80341010       9.75556762       2.09044867       1.34747080       0.36426072      -0.29435645
O        5.77712468       7.68404736       2.21954567      -0.46246185       0.84353524      -0.81564042
Sr       3.68586730       8.09420890       3.96909485       0.17727135      -1.09621757       0.60316264
Ti       5.90498115       9.72794997       5.80952401       0.66615519      -0.95040050       1.07438547
O        5.82663024       9.97546899       3.92863956      -0.64416375      -0.20338114      -0.75163846
O        3.84033420       9.71392101       5.99009189       0.53904216       0.41607571      -0.31044674
O        5.78027393       7.80453472       5.58907196       0.50496625       0.81835732       0.69111255
Sr       4.00348519       7.76429257       7.62304211       0.11079072       0.24424796       0.37785223
Ti       5.84742196       9.67679611       9.83691612      -0.58701478       0.16362698      -0.47667641
O        5.96144293       9.81031309       7.82481732       0.37150682      -0.85359199      -1.22002538
O        3.85583423       9.58210758       9.55509927      -0.33195284       0.05495293       0.51722046
O        5.84679180       7.73490205       9.55492614       0.42658616      -0.40097349      -0.06591296
Sr       3.67568357       7.87206567      11.51915388       0.69843666      -0.36951421       0.58150903
Ti       5.78691985       9.70137679      13.77806091       0.44146112      -0.41639187      -1.30356735
O        5.81495603       9.44314198      11.71710860      -1.06342615       0.78727458      -0.92117069
O        3.90313665       9.77620349      13.78219471      -0.33553311       0.65432855      -0.29626394
O        5.57887045       7.73609415      13.75573925       0.36520019      -0.39210044      -0.42376980
Sr       3.89829696       7.91473269      15.57865585      -0.18892702      -0.53121643       0.57656881
Ti       5.94047407       9.73011456      17.54734445      -1.31125962      -0.50365323       1.49189298
O        5.92300871       9.69764901      15.67861909       0.04187337       0.65985496      -1.14046631
O        3.82073269       9.80217863      17.48276177       0.85015607       0.17623937       0.13715544
O        5.70548222       7.84118065      17.51166927       0.52243069      -0.36695455       0.31141571
Sr       3.95800207      11.70638100      -0.01658558      -0.48421600       0.08581012      -0.26685438
Ti       5.92656747      13.49818816       2.00217148      -0.72753909       3.21173161      -0.57839490
O        5.81527003      13.60400418      -0.05272787      -0.03998208      -0.18946118       0.42268954
O        3.83607187      13.35770804       2.20360168       1.84178655       0.32275750      -1.37353526
O        6.00557216      11.64651753       1.92940000      -0.41445558      -0.68930302      -0.66137930
Sr       3.75781346      11.64404291       3.90027486      -0.55528352       0.20708510       0.42511614
Ti       5.80085483      13.46208986       5.77766743      -0.00856836       1.70844177       0.66567302
O        5.82207123      13.40859869       3.86790606       0.13305258       0.15761613      -0.00345120
O        3.89022037      13.35917622       5.87746573      -0.49045752       0.24414261      -0.54818593
O        6.04623217      11.69725630       5.89564799      -0.21041834      -2.00473594      -0.04223427
Sr       4.06481785      11.42390857       7.88351054      -0.72746488       1.14053271      -0.35732509
Ti       5.82980462      13.63011221       9.69855451      -0.31669055      -0.13584968      -0.37663488
O        5.81245555      13.53448855       7.73363962       0.79688058       0.56673397       0.88547507
O        3.91959528      13.52743314       9.56548047      -0.09375887       0.79643977       0.24573282
O        5.86660995      11.62702323       9.74738814      -0.12735328       0.06129707       0.21694767
Sr       3.84918376      11.64750549      11.78594240       0.04139500      -0.10037967      -0.12233067
Ti       5.75321133      13.60759123      13.57433143       0.74439721      -0.17772519      -0.41750091
O        5.72562608      13.49508455      11.54985505       0.23197565       0.75054910       0.80262493
O        3.86437995      13.54017612      13.52083123       0.10042079       0.08827603       0.59332423
O        5.91286328      11.68190183      13.53887390      -0.40115369      -1.10208210       0.41194171
Sr       3.86043774      11.53398147      15.63198059      -0.31561084       0.71086744      -0.07395322
Ti       5.78311458      13.68534194      17.43749301       0.40170553      -1.01554168       1.19838480
O        5.78303900      13.63461595      15.55751968      -0.12660246       0.02093765      -0.46755612
O        3.80755763      13.61726066      17.46289282       2.64099243      -0.02825256      -0.36065084
O        5.77428110      11.73247750      17.61018104       0.18531532      -0.07885498      -0.37523642
Sr       3.95607891      15.66750363       0.01160894      -0.37626208      -0.69413914       0.14227768
Ti       5.82713704      17.51210168       1.85334133      -0.57805279      -0.42405474       1.24173612
O        6.16662201      17.47446045      -0.00792795      -0.20696366       0.35059766      -0.82804485
O        3.89742475      17.56350125       1.68411264       1.03861926      -0.17426255      -0.06127915
O        5.74657244      15.49329819       1.92227356      -0.52842067       0.41220037       0.20202859
Sr       3.91002716      15.42409937       3.91348529       0.14698851       0.30552633      -0.39160200
Ti       5.82240524      17.58717762       5.89449341      -0.00793353      -0.55046515      -1.32487237
O        5.74489309      17.56588978       3.85997721      -0.31540139       0.03230688       0.54299576
O        3.78730590      17.64547979       5.85103214       1.52186080      -0.20147032       1.10581112
O        5.72738654      15.45191098       5.67829119      -0.01746504       1.64443139       0.91223381
Sr       3.72958966      15.50431496       7.73083083       0.25235785      -0.42097891      -0.03799919
Ti       5.80592406      17.51161283       9.69748204       1.24757802      -0.05387880      -1.22018328
O        5.80516174      17.64250731       7.77565121      -0.53880898      -0.48344147      -0.73852432
O        3.77879930      17.41187921       9.62862127       1.17579129      -0.03056915       0.57044761
O        5.80758354      15.69663560       9.70239685       0.15191246      -1.43620887       0.09055886
Sr       3.91041356      15.77241620      11.73282787      -0.37958380      -0.82940181      -0.13596084
Ti       5.78293089      17.58239558      13.50032144       0.15077830      -0.20798004       3.14332471
O        5.81888802      17.51106295      11.68180720       0.03336852       0.36976975      -1.60927894
O        3.95247702      17.49996198      13.67737528      -0.39947007      -0.05148482      -0.83564980
O        5.79258075      15.49885343      13.58925057       0.38665599       0.38768857      -0.13229876
Sr       3.91938946      15.54092398      15.45575818      -0.30881042       0.46754343       0.20133817
Ti       5.77756181      17.51503861      17.52537458       0.27194060      -0.03599219      -0.59531544
O        5.79239496      17.53151565      15.59322318       0.01289525      -0.72636154       0.89475151
O        3.93130978      17.69710168      17.83628055       0.87941425       0.80849344      -0.47427430
O        5.54406310      15.61118004      17.64420897       0.83309717       0.21021137      -0.79491126
Sr       7.71026262       0.00255109      -0.06708336       0.04373781      -0.26440507       0.27472825
Ti       9.71065833       1.74301765       1.92572058       1.87321126       0.58929030       0.00535419
O        9.94014203       1.85067082       0.05166251      -1.30521477       0.01683467      -0.67206815
O        7.77141299       1.88192533       1.97037315      -0.65526476       0.09928595      -0.97801175
O        9.79063744      -0.06344121       2.02983789      -1.17828406      -0.78847111      -0.26012816
Sr       7.64476204      -0.04297701       4.02186148       0.09360427      -0.04445375      -0.77833059
Ti       9.75121108       1.92241577       5.71428436      -0.57701453       0.46670250       0.92109079
O        9.44394185       1.94634485       3.90834624       1.24916657      -0.10057560       0.01127668
O        7.84867748       2.01539879       5.78892681      -2.37152418      -0.87811510       0.56768798
O        9.77205978      -0.09157733       5.85279811      -0.00503077       1.63686932      -0.04869132
Sr       7.83105702       0.09621334       7.89093852       0.10899917      -0.42631984      -0.46151306
Ti       9.83625026       2.03743749       9.65465612       0.84918151      -1.21321220       0.56120915
O        9.59430751       2.00404537       7.76416987       0.70448257      -0.32929362      -0.20522461
O        7.74684175       1.89798920       9.66017099       1.22417561      -0.25444621       0.64189575
O        9.92644744      -0.09680270       9.59924041      -0.45875693       1.59913689      -0.63803823
Sr       7.59274057      -0.13403106      11.69865074       1.37870425       0.44525846       0.12968593
Ti       9.79393870       2.05116494      13.56706703      -0.04805050      -0.80116705       0.63617761
O        9.69731652       1.77492232      11.65281682      -0.69441308       0.25279802      -0.57401692
O        7.68974827       1.86834351      13.66453169       0.05282067       0.07114176      -0.31553739
O        9.93794400      -0.07718241      13.83463275      -1.02246729      -0.16669322      -0.54181466
Sr       7.83672334      -0.02282590      15.54328005       0.17634638       0.07426827      -0.16566370
Ti       9.85548299       1.78614200      17.60906595      -0.09092590       1.62006335      -0.59113176
O        9.78330332       1.97195280      15.50929811      -0.12829522       0.19400114       1.03963900
O        7.75935677       1.74991001      17.62995563       0.53041346       1.14905246       0.00220204
O        9.81265461      -0.02804251      17.42268455      -0.35931340      -1.07805543       0.35430702
Sr       7.64762540       3.70815899      -0.06357152       0.85689150       0.52354316      -0.04354547
Ti       9.82951549       5.80546827       1.81587139       0.22191889      -0.09840670      -1.68953432
O        9.59900093       5.69394620      -0.14398022      -0.24572954       0.78051918       1.32717906
O        7.75742296       5.91578868       1.86893512      -0.61156938      -0.60997057      -0.24448050
O        9.83345726       3.97947764       1.86828948      -0.20719120      -1.11995773       0.46656286
Sr       7.81190806       3.86692391       3.82671812      -0.32672776      -0.26680416      -0.16201398
Ti       9.77126495       5.78910861       5.60399205       0.06703438       0.49618404       0.94940068
O        9.65125548       5.85248101       3.70593485       0.55857241      -0.30875969       2.05250308